 Gaussian 03, Revision D.01,

 ------------------------------------------------------------------
 #p opt=gdiis b3lyp/aug-cc-pVDZ scf=tight integral=(grid=ultrafine)
 ------------------------------------------------------------------

 ----------------------
 Molecule 13, geometry.
 ----------------------
 Symbolic Z-matrix:
 Charge =  0 Multiplicity = 1

 SCF Done:  E(RB+HF-LYP) =  -1368.62948129     A.U. after   13 cycles
 SCF Done:  E(RB+HF-LYP) =  -1368.63341066     A.U. after   11 cycles
 SCF Done:  E(RB+HF-LYP) =  -1368.63369959     A.U. after   10 cycles
 SCF Done:  E(RB+HF-LYP) =  -1368.63372577     A.U. after    9 cycles
 SCF Done:  E(RB+HF-LYP) =  -1368.63373009     A.U. after    8 cycles
 SCF Done:  E(RB+HF-LYP) =  -1368.63373307     A.U. after    9 cycles
 SCF Done:  E(RB+HF-LYP) =  -1368.63373565     A.U. after    9 cycles
 SCF Done:  E(RB+HF-LYP) =  -1368.63373717     A.U. after    9 cycles
 SCF Done:  E(RB+HF-LYP) =  -1368.63373762     A.U. after    8 cycles
 SCF Done:  E(RB+HF-LYP) =  -1368.63373812     A.U. after    8 cycles
 SCF Done:  E(RB+HF-LYP) =  -1368.63373841     A.U. after    8 cycles
 SCF Done:  E(RB+HF-LYP) =  -1368.63373859     A.U. after    8 cycles
 SCF Done:  E(RB+HF-LYP) =  -1368.63373875     A.U. after    8 cycles
 SCF Done:  E(RB+HF-LYP) =  -1368.63373884     A.U. after    7 cycles
 Optimization completed.
    -- Stationary point found.
 Normal termination of Gaussian 03 at Sun Aug  3 14:29:27 2008.
 Gaussian 03:  IA64L-G03RevD.01 13-Oct-2005

 ----------------------------------------------------------------------
 #p nmr=giao b3lyp/Gen scf=tight integral=(grid=ultrafine) scrf=(pcm,so
 lvent=water,read) guess=read geom=checkpoint
 ----------------------------------------------------------------------

 Molecule 13, NMR.
 -----------------
 Redundant internal coordinates taken from checkpoint file:
 molecule_13.chk
 Charge =  0 Multiplicity = 1

                         Standard orientation:
 ---------------------------------------------------------------------
 Center     Atomic     Atomic              Coordinates (Angstroms)
 Number     Number      Type              X           Y           Z
 ---------------------------------------------------------------------
    1         15             0       -0.749070   -0.782802   -0.737451
    2          8             0       -1.266410    0.389276   -1.555313
    3          8             0       -1.521551   -2.057889   -0.449162
    4          7             0       -0.337695   -0.011237    0.965046
    5          1             0       -0.930045    0.840802    1.093951
    6         16             0        1.320570   -1.162059   -1.172782
    7          6             0        1.109703    0.330790    1.109983
    8          1             0        1.200017    1.293877    1.624148
    9          1             0        1.584625   -0.446166    1.719615
   10          6             0        1.789187    0.387702   -0.264962
   11          1             0        1.418265    1.246060   -0.838743
   12          6             0        3.306321    0.477527   -0.151202
   13          1             0        3.698997   -0.411775    0.370285
   14          1             0        3.747886    0.517875   -1.158459
   15          8             0       -1.340430   -2.320726    2.251608
   16          1             0       -1.517479   -2.512934    1.302068
   17          1             0       -0.977218   -3.128782    2.629550
   18          8             0       -1.966960    2.222242    1.392085
   19          1             0       -1.712140    3.124934    1.610955
   20          1             0       -2.539346    2.285768    0.584355
   21          1             0       -0.621554   -0.718195    1.667466
   22          8             0       -3.244692    2.117346   -0.963086
   23          1             0       -2.602433    1.452278   -1.312084
   24          1             0       -4.116970    1.722363   -1.072272
   25          8             0        3.597049    1.670084    0.585207
   26          1             0        4.550871    1.808750    0.596507
 ---------------------------------------------------------------------

 SCF Done:  E(RB+HF-LYP) =  -1368.75032225     A.U. after   12 cycles

  1  P    Isotropic =   230.2217   Anisotropy =   230.4538

  2  O    Isotropic =   123.1298   Anisotropy =    89.8717

  3  O    Isotropic =   129.9712   Anisotropy =    93.0012

  4  N    Isotropic =   175.2207   Anisotropy =    69.5033

  5  H    Isotropic =    21.9475   Anisotropy =    27.3840

  6  S    Isotropic =   477.9945   Anisotropy =   191.7991

  7  C    Isotropic =   142.4397   Anisotropy =    24.9750

  8  H    Isotropic =    27.6368   Anisotropy =     6.8111

  9  H    Isotropic =    28.7055   Anisotropy =     7.5049

 10  C    Isotropic =   132.8873   Anisotropy =    41.4729

 11  H    Isotropic =    27.2523   Anisotropy =     5.8276

 12  C    Isotropic =   126.0102   Anisotropy =    54.0953

 13  H    Isotropic =    27.7359   Anisotropy =     4.3447

 14  H    Isotropic =    27.2906   Anisotropy =     5.9674

 15  O    Isotropic =   316.0772   Anisotropy =    56.7780

 16  H    Isotropic =    26.3536   Anisotropy =    26.7291

 17  H    Isotropic =    29.8811   Anisotropy =    20.6896

 18  O    Isotropic =   308.2313   Anisotropy =    41.4996

 19  H    Isotropic =    29.7594   Anisotropy =    19.2076

 20  H    Isotropic =    24.3483   Anisotropy =    32.6453

 21  H    Isotropic =    23.6021   Anisotropy =    22.3299

 22  O    Isotropic =   309.6457   Anisotropy =    48.8212

 23  H    Isotropic =    25.5731   Anisotropy =    32.1488

 24  H    Isotropic =    29.9212   Anisotropy =    19.0667

 25  O    Isotropic =   313.0000   Anisotropy =    81.6231

 26  H    Isotropic =    29.8602   Anisotropy =    22.0648

 The electronic state is 1-A.
 Alpha  occ. eigenvalues --  -88.89742 -77.17396 -19.15615 -19.15243 -19.15010
 Alpha  occ. eigenvalues --  -19.14969 -19.13448 -19.13226 -14.40594 -10.24295
 Alpha  occ. eigenvalues --  -10.24276 -10.23875  -7.95797  -6.64836  -5.92136
 Alpha  occ. eigenvalues --   -5.91916  -5.91242  -4.81233  -4.80968  -4.80728
 Alpha  occ. eigenvalues --   -1.03207  -1.02703  -1.01970  -1.01098  -1.00515
 Alpha  occ. eigenvalues --   -0.96284  -0.95684  -0.82603  -0.72673  -0.69532
 Alpha  occ. eigenvalues --   -0.59541  -0.57394  -0.56659  -0.54219  -0.53416
 Alpha  occ. eigenvalues --   -0.52820  -0.52603  -0.50678  -0.48961  -0.44268
 Alpha  occ. eigenvalues --   -0.43883  -0.42926  -0.42203  -0.41308  -0.40375
 Alpha  occ. eigenvalues --   -0.39605  -0.38495  -0.37940  -0.35738  -0.34911
 Alpha  occ. eigenvalues --   -0.33706  -0.32546  -0.32230  -0.32122  -0.31904
 Alpha  occ. eigenvalues --   -0.31217  -0.30661  -0.28838  -0.25949
 Alpha virt. eigenvalues --   -0.02144  -0.01599   0.00320   0.00853   0.01261
 Alpha virt. eigenvalues --    0.02506   0.03165   0.03614   0.03897   0.04042
 Alpha virt. eigenvalues --    0.05315   0.06193   0.06300   0.06921   0.07898

 Mulliken atomic charges:
              1
     1  P    1.385144
     2  O   -0.913497
     3  O   -0.920739
     4  N   -0.552240
     5  H    0.370689
     6  S   -0.016697
     7  C   -0.102411
     8  H    0.232510
     9  H    0.227002
    10  C   -0.465029
    11  H    0.199571
    12  C    0.222569
    13  H    0.195504
    14  H    0.198323
    15  O   -0.640406
    16  H    0.339900
    17  H    0.302257
    18  O   -0.668539
    19  H    0.297533
    20  H    0.362863
    21  H    0.334646
    22  O   -0.659700
    23  H    0.375931
    24  H    0.299526
    25  O   -0.700238
    26  H    0.295529
 Sum of Mulliken charges=   0.00000

 Dipole moment (field-independent basis, Debye):
    X=     6.6893    Y=     1.7999    Z=     4.4202  Tot=     8.2173
 Quadrupole moment (field-independent basis, Debye-Ang):
   XX=   -69.7728   YY=   -87.7247   ZZ=   -93.5755
   XY=    -1.2758   XZ=     1.6663   YZ=    -2.1092

 Normal termination of Gaussian 03 at Sun Aug  3 14:48:48 2008.
