 Gaussian 03, Revision D.01,

 ----------------------------------------
 #p opt=gdiis b3lyp/aug-cc-pVDZ scf=tight
 ----------------------------------------

 ---------------------
 Molecule 4, geometry.
 ---------------------
 Symbolic Z-matrix:
 Charge = -2 Multiplicity = 1

 SCF Done:  E(RB+HF-LYP) =  -1331.51665708     A.U. after   16 cycles
 SCF Done:  E(RB+HF-LYP) =  -1331.53005189     A.U. after   12 cycles
 SCF Done:  E(RB+HF-LYP) =  -1331.53314060     A.U. after   14 cycles
 SCF Done:  E(RB+HF-LYP) =  -1331.53603357     A.U. after   15 cycles
 SCF Done:  E(RB+HF-LYP) =  -1331.53846306     A.U. after   16 cycles
 SCF Done:  E(RB+HF-LYP) =  -1331.53923595     A.U. after   15 cycles
 SCF Done:  E(RB+HF-LYP) =  -1331.54036029     A.U. after   12 cycles
 SCF Done:  E(RB+HF-LYP) =  -1331.54176243     A.U. after   12 cycles
 SCF Done:  E(RB+HF-LYP) =  -1331.53973604     A.U. after   14 cycles
 SCF Done:  E(RB+HF-LYP) =  -1331.54303696     A.U. after   14 cycles
 SCF Done:  E(RB+HF-LYP) =  -1331.54436140     A.U. after    8 cycles
 SCF Done:  E(RB+HF-LYP) =  -1331.54436182     A.U. after    8 cycles
 SCF Done:  E(RB+HF-LYP) =  -1331.54436229     A.U. after    9 cycles
 SCF Done:  E(RB+HF-LYP) =  -1331.54436282     A.U. after    9 cycles
 SCF Done:  E(RB+HF-LYP) =  -1331.54436312     A.U. after    8 cycles
 SCF Done:  E(RB+HF-LYP) =  -1331.54436336     A.U. after    8 cycles
 SCF Done:  E(RB+HF-LYP) =  -1331.54436348     A.U. after    8 cycles
 SCF Done:  E(RB+HF-LYP) =  -1331.54436378     A.U. after    7 cycles
 SCF Done:  E(RB+HF-LYP) =  -1331.54436398     A.U. after    7 cycles
 Optimization completed.
    -- Stationary point found.
 Normal termination of Gaussian 03 at Sun Jul 27 21:41:35 2008.
 Gaussian 03:  IA64L-G03RevD.01 13-Oct-2005

 ----------------------------------------------------------------------
 #p nmr=giao b3lyp/Gen scf=tight integral=(grid=ultrafine) scrf=(pcm,so
 lvent=water,read) guess=read geom=checkpoint
 ----------------------------------------------------------------------

 Molecule 4, NMR and scalar couplings.
 -------------------------------------
 Redundant internal coordinates taken from checkpoint file:
 molecule_4.chk
 Charge = -2 Multiplicity = 1

                         Standard orientation:
 ---------------------------------------------------------------------
 Center     Atomic     Atomic              Coordinates (Angstroms)
 Number     Number      Type              X           Y           Z
 ---------------------------------------------------------------------
    1          6             0       -1.732768   -0.023601    0.217020
    2          1             0       -1.603168    0.224623   -0.846528
    3          1             0       -1.945723    0.926526    0.744161
    4          7             0       -0.507819   -0.671525    0.658229
    5          1             0       -0.446946   -0.700549    1.675859
    6         15             0        1.025015    0.051058    0.108659
    7          8             0        2.078096   -0.720550    0.974746
    8          8             0        0.947854    1.590453    0.420339
    9         16             0        1.091866   -0.349066   -1.937099
   10          8             0        2.413736    1.394796    2.860567
   11          1             0        2.525799    0.514433    2.441517
   12          1             0        1.885213    1.796027    2.136809
   13          8             0        3.072946   -2.857162   -0.454288
   14          1             0        2.790948   -2.158457    0.191423
   15          1             0        2.636032   -2.497696   -1.244848
   16          8             0        0.356386    3.040687   -1.833220
   17          1             0        0.552006    2.663854   -0.935358
   18          1             0        0.518048    2.233980   -2.352665
   19          6             0       -2.942975   -0.973845    0.365433
   20          1             0       -3.072895   -1.262818    1.421723
   21          1             0       -2.693955   -1.889492   -0.195770
   22          6             0       -4.215686   -0.385162   -0.164700
   23          1             0       -4.176036   -0.046363   -1.207011
   24          6             0       -5.361453   -0.215964    0.511377
   25          1             0       -5.454835   -0.518862    1.557867
   26          1             0       -6.239680    0.240281    0.048975
 ---------------------------------------------------------------------

 SCF Done:  E(RB+HF-LYP) =  -1331.88462898     A.U. after   12 cycles

  1  C    Isotropic =   143.8571   Anisotropy =    39.1990

  2  H    Isotropic =    28.4858   Anisotropy =     6.3880

  3  H    Isotropic =    28.8587   Anisotropy =     5.3415

  4  N    Isotropic =   158.2032   Anisotropy =   100.7593

  5  H    Isotropic =    29.6063   Anisotropy =     6.3279

  6  P    Isotropic =   199.6959   Anisotropy =    65.1129

  7  O    Isotropic =   143.5065   Anisotropy =    82.6468

  8  O    Isotropic =   131.3569   Anisotropy =   115.5479

  9  S    Isotropic =   646.2901   Anisotropy =   404.1701

 10  O    Isotropic =   304.5616   Anisotropy =    41.0336

 11  H    Isotropic =    28.3363   Anisotropy =    24.0725

 12  H    Isotropic =    28.3268   Anisotropy =    24.6250

 13  O    Isotropic =   310.2895   Anisotropy =    33.2802

 14  H    Isotropic =    25.6759   Anisotropy =    30.8165

 15  H    Isotropic =    30.0378   Anisotropy =    19.4360

 16  O    Isotropic =   309.1621   Anisotropy =    29.2303

 17  H    Isotropic =    25.4981   Anisotropy =    30.2440

 18  H    Isotropic =    29.9084   Anisotropy =    19.4933

 19  C    Isotropic =   147.1200   Anisotropy =    36.9578

 20  H    Isotropic =    29.5085   Anisotropy =     5.2738

 21  H    Isotropic =    29.3756   Anisotropy =     4.0957

 22  C    Isotropic =    48.4669   Anisotropy =   170.3975

 23  H    Isotropic =    25.2479   Anisotropy =     6.4018

 24  C    Isotropic =    80.3166   Anisotropy =   122.8194

 25  H    Isotropic =    26.3828   Anisotropy =     5.9033

 26  H    Isotropic =    26.4637   Anisotropy =     6.0066

 The electronic state is 1-A.
 Alpha  occ. eigenvalues --  -88.79385 -77.11009 -19.11528 -19.11511 -19.11268
 Alpha  occ. eigenvalues --  -19.07444 -19.07145 -14.29098 -10.18778 -10.18553
 Alpha  occ. eigenvalues --  -10.17419 -10.17031  -7.85388  -6.58253  -5.81810
 Alpha  occ. eigenvalues --   -5.81169  -5.81147  -4.74489  -4.74405  -4.74339
 Alpha  occ. eigenvalues --   -0.97939  -0.97608  -0.97374  -0.94483  -0.89054
 Alpha  occ. eigenvalues --   -0.85754  -0.78315  -0.70002  -0.64228  -0.60088
 Alpha  occ. eigenvalues --   -0.54817  -0.49804  -0.48060  -0.47812  -0.47726
 Alpha  occ. eigenvalues --   -0.46794  -0.44852  -0.42986  -0.39786  -0.39197
 Alpha  occ. eigenvalues --   -0.38414  -0.37991  -0.37457  -0.36977  -0.35561
 Alpha  occ. eigenvalues --   -0.33807  -0.33488  -0.32515  -0.29048  -0.28869
 Alpha  occ. eigenvalues --   -0.28692  -0.27369  -0.26572  -0.25898  -0.25468
 Alpha  occ. eigenvalues --   -0.24454  -0.22031  -0.19631  -0.19174
 Alpha virt. eigenvalues --    0.00081   0.00149   0.01327   0.01626   0.02171
 Alpha virt. eigenvalues --    0.03327   0.03508   0.04425   0.04878   0.05661
 Alpha virt. eigenvalues --    0.06462   0.06591   0.07201   0.07892   0.08527

 Mulliken atomic charges:
              1
     1  C   -0.320168
     2  H    0.169184
     3  H    0.155727
     4  N   -0.493054
     5  H    0.232466
     6  P    1.221440
     7  O   -1.131144
     8  O   -1.094930
     9  S   -0.834462
    10  O   -0.638297
    11  H    0.308731
    12  H    0.309580
    13  O   -0.644105
    14  H    0.354715
    15  H    0.269767
    16  O   -0.650464
    17  H    0.354641
    18  H    0.267653
    19  C   -0.229949
    20  H    0.147615
    21  H    0.160002
    22  C    0.177914
    23  H    0.146288
    24  C   -0.502519
    25  H    0.128337
    26  H    0.135033
 Sum of Mulliken charges=  -2.00000

 Dipole moment (field-independent basis, Debye):
    X=   -15.4330    Y=    -2.2131    Z=     1.7710  Tot=    15.6911
 Quadrupole moment (field-independent basis, Debye-Ang):
   XX=  -142.9635   YY=  -146.4459   ZZ=  -127.0092
   XY=     7.6201   XZ=    -8.6057   YZ=    -1.2774

 Normal termination of Gaussian 03 at Sun Jul 27 21:52:54 2008.
