 Gaussian 03, Revision D.01,

 ----------------------------------------------------------------------
 #p opt=gdiis b3lyp/Gen scf=tight pseudo=read integral=(grid=ultrafine)
 ----------------------------------------------------------------------

 ---------------------
 Molecule 8, geometry.
 ---------------------
 Symbolic Z-matrix:
 Charge =  0 Multiplicity = 1

 SCF Done:  E(RB+HF-LYP) =  -1404.22211576     A.U. after   17 cycles
 SCF Done:  E(RB+HF-LYP) =  -1404.24519966     A.U. after   12 cycles
 SCF Done:  E(RB+HF-LYP) =  -1404.25450236     A.U. after   13 cycles
 SCF Done:  E(RB+HF-LYP) =  -1404.26109493     A.U. after   13 cycles
 SCF Done:  E(RB+HF-LYP) =  -1404.26311419     A.U. after   12 cycles
 SCF Done:  E(RB+HF-LYP) =  -1404.26362382     A.U. after   12 cycles
 SCF Done:  E(RB+HF-LYP) =  -1404.26381343     A.U. after   11 cycles
 SCF Done:  E(RB+HF-LYP) =  -1404.26389612     A.U. after   11 cycles
 SCF Done:  E(RB+HF-LYP) =  -1404.26393782     A.U. after   11 cycles
 SCF Done:  E(RB+HF-LYP) =  -1404.26397505     A.U. after   11 cycles
 SCF Done:  E(RB+HF-LYP) =  -1404.26407329     A.U. after    9 cycles
 SCF Done:  E(RB+HF-LYP) =  -1404.26407549     A.U. after    9 cycles
 SCF Done:  E(RB+HF-LYP) =  -1404.26407683     A.U. after    9 cycles
 SCF Done:  E(RB+HF-LYP) =  -1404.26407799     A.U. after    9 cycles
 SCF Done:  E(RB+HF-LYP) =  -1404.26407871     A.U. after    9 cycles
 SCF Done:  E(RB+HF-LYP) =  -1404.26407909     A.U. after    9 cycles
 SCF Done:  E(RB+HF-LYP) =  -1404.26407923     A.U. after    9 cycles
 SCF Done:  E(RB+HF-LYP) =  -1404.26407933     A.U. after    9 cycles
 SCF Done:  E(RB+HF-LYP) =  -1404.26407939     A.U. after    8 cycles
 Optimization completed.
    -- Stationary point found.
 Normal termination of Gaussian 03 at Sat Aug  2 16:35:14 2008.
 Gaussian 03:  IA64L-G03RevD.01 13-Oct-2005

 ----------------------------------------------------------------------
 #p nmr=(giao,spinspin) b3lyp/Gen scf=tight integral=(grid=ultrafine) p
 seudo=read scrf=(pcm,solvent=water,read) guess=read geom=checkpoint
 ----------------------------------------------------------------------

 Molecule 8, NMR and scalar couplings.
 -------------------------------------
 Redundant internal coordinates taken from checkpoint file:
 molecule_8.chk
 Charge =  0 Multiplicity = 1

                         Standard orientation:
 ---------------------------------------------------------------------
 Center     Atomic     Atomic              Coordinates (Angstroms)
 Number     Number      Type              X           Y           Z
 ---------------------------------------------------------------------
    1         15             0       -2.120413   -0.508234   -0.603368
    2          8             0       -1.784727    0.590032   -1.602498
    3          8             0       -3.513832   -0.917138   -0.161124
    4          7             0       -1.279749    0.083918    1.000638
    5          1             0       -1.421765    1.118675    1.055783
    6         16             0       -0.925625   -2.239730   -0.912659
    7          6             0        0.187348   -0.211659    1.159010
    8          1             0        0.593651    0.535812    1.847067
    9          1             0        0.289104   -1.202115    1.614388
   10          6             0        0.747321   -1.414338   -1.057975
   11          1             0        0.938351   -1.175104   -2.108319
   12          8             0       -3.274251   -1.186494    2.544940
   13          1             0       -3.631799   -1.245457    1.630012
   14          1             0       -3.380438   -2.062416    2.931997
   15          8             0       -1.655784    2.852479    1.126499
   16          1             0       -1.095975    3.580022    1.416818
   17          1             0       -2.038782    3.120040    0.251884
   18          1             0       -1.820879   -0.352072    1.772704
   19          8             0       -2.597769    3.163884   -1.366397
   20          1             0       -2.382513    2.227955   -1.595619
   21          1             0       -3.538176    3.268062   -1.550630
   22          6             0        0.902193   -0.159846   -0.194068
   23          1             0        0.580705    0.724813   -0.748669
   24          1             0        1.439822   -2.201356   -0.739716
   25         53             0        3.068545    0.211847    0.133919
 ---------------------------------------------------------------------

 SCF Done:  E(RB+HF-LYP) =  -1404.37083776     A.U. after   13 cycles

  1  P    Isotropic =   254.3193   Anisotropy =   286.1198

  2  O    Isotropic =   109.2568   Anisotropy =    94.6969

  3  O    Isotropic =   136.9431   Anisotropy =    96.8104

  4  N    Isotropic =   165.7798   Anisotropy =    60.6270

  5  H    Isotropic =    21.8727   Anisotropy =    24.3530

  6  S    Isotropic =   470.1850   Anisotropy =   252.8780

  7  C    Isotropic =   140.9417   Anisotropy =    45.0572

  8  H    Isotropic =    27.8064   Anisotropy =     6.4411

  9  H    Isotropic =    27.5089   Anisotropy =     3.8708

 10  C    Isotropic =   145.9720   Anisotropy =    41.4780

 11  H    Isotropic =    27.6085   Anisotropy =     7.1347

 12  O    Isotropic =   314.2097   Anisotropy =    53.8919

 13  H    Isotropic =    26.6406   Anisotropy =    26.0526

 14  H    Isotropic =    29.8596   Anisotropy =    20.3127

 15  O    Isotropic =   307.9311   Anisotropy =    40.1684

 16  H    Isotropic =    29.6039   Anisotropy =    19.2131

 17  H    Isotropic =    24.2571   Anisotropy =    32.2175

 18  H    Isotropic =    23.3983   Anisotropy =    22.5789

 19  O    Isotropic =   308.9403   Anisotropy =    50.4402

 20  H    Isotropic =    25.6722   Anisotropy =    31.7483

 21  H    Isotropic =    29.8531   Anisotropy =    19.4894

 22  C    Isotropic =   144.8888   Anisotropy =    43.2960

 23  H    Isotropic =    26.3909   Anisotropy =    12.2042

 24  H    Isotropic =    28.3305   Anisotropy =     8.5193

 25  I    Isotropic =   269.3176   Anisotropy =    17.0039

 The electronic state is 1-A.
 Alpha  occ. eigenvalues --  -88.90269 -77.17614 -19.15368 -19.15112 -19.15022
 Alpha  occ. eigenvalues --  -19.13571 -19.13460 -14.40913 -10.25868 -10.25238
 Alpha  occ. eigenvalues --  -10.23992  -7.96302  -6.65033  -5.92675  -5.92376
 Alpha  occ. eigenvalues --   -5.91760  -4.81412  -4.81182  -4.80934  -2.14744
 Alpha  occ. eigenvalues --   -2.14370  -2.14347  -2.13311  -2.13310  -1.02884
 Alpha  occ. eigenvalues --   -1.02067  -1.01262  -1.00610  -0.96504  -0.95849
 Alpha  occ. eigenvalues --   -0.83724  -0.76686  -0.69998  -0.67531  -0.61917
 Alpha  occ. eigenvalues --   -0.57470  -0.55549  -0.54306  -0.53267  -0.52451
 Alpha  occ. eigenvalues --   -0.51420  -0.49682  -0.46201  -0.44667  -0.43231
 Alpha  occ. eigenvalues --   -0.42644  -0.40916  -0.40551  -0.39601  -0.39396
 Alpha  occ. eigenvalues --   -0.38917  -0.36968  -0.34334  -0.33223  -0.32595
 Alpha  occ. eigenvalues --   -0.32408  -0.32124  -0.32095  -0.31241  -0.30480
 Alpha  occ. eigenvalues --   -0.26936  -0.26610  -0.26227
 Alpha virt. eigenvalues --   -0.06664  -0.01861  -0.01097   0.00279   0.00952
 Alpha virt. eigenvalues --    0.01298   0.02978   0.03426   0.03779   0.04364
 Alpha virt. eigenvalues --    0.04534   0.05263   0.05444   0.06515   0.07652

 Mulliken atomic charges:
              1
     1  P    1.340985
     2  O   -0.922576
     3  O   -0.875005
     4  N   -0.576203
     5  H    0.383012
     6  S   -0.033917
     7  C    0.016239
     8  H    0.231843
     9  H    0.231510
    10  C   -0.494576
    11  H    0.214582
    12  O   -0.632196
    13  H    0.338442
    14  H    0.302509
    15  O   -0.666062
    16  H    0.298144
    17  H    0.359701
    18  H    0.338466
    19  O   -0.654598
    20  H    0.369902
    21  H    0.300268
    22  C   -0.410574
    23  H    0.190884
    24  H    0.256368
    25  I    0.092852
 Sum of Mulliken charges=   0.00000

 Dipole moment (field-independent basis, Debye):
    X=     4.3552    Y=    -0.4610    Z=     3.8340  Tot=     5.8206
 Quadrupole moment (field-independent basis, Debye-Ang):
   XX=  -119.8562   YY=  -100.4720   ZZ=  -109.3391
   XY=    -3.1523   XZ=    -2.2960   YZ=    -1.8811

 Normal termination of Gaussian 03 at Sat Aug  2 19:21:56 2008.
