 Gaussian 03, Revision D.01,

 ------------------------------------------------------------------
 #p opt=gdiis b3lyp/aug-cc-pVDZ scf=tight integral=(grid=ultrafine)
 ------------------------------------------------------------------

 ----------------------
 Molecule 14, geometry.
 ----------------------
 Symbolic Z-matrix:
 Charge = -1 Multiplicity = 1

 SCF Done:  E(RB+HF-LYP) =  -1368.11513714     A.U. after   14 cycles
 SCF Done:  E(RB+HF-LYP) =  -1368.12000714     A.U. after   15 cycles
 SCF Done:  E(RB+HF-LYP) =  -1368.12048600     A.U. after   11 cycles
 SCF Done:  E(RB+HF-LYP) =  -1368.12080617     A.U. after   15 cycles
 SCF Done:  E(RB+HF-LYP) =  -1368.12101466     A.U. after   11 cycles
 SCF Done:  E(RB+HF-LYP) =  -1368.12117126     A.U. after   11 cycles
 SCF Done:  E(RB+HF-LYP) =  -1368.12126991     A.U. after   11 cycles
 SCF Done:  E(RB+HF-LYP) =  -1368.12131199     A.U. after   10 cycles
 SCF Done:  E(RB+HF-LYP) =  -1368.12135486     A.U. after   11 cycles
 SCF Done:  E(RB+HF-LYP) =  -1368.12136146     A.U. after    9 cycles
 SCF Done:  E(RB+HF-LYP) =  -1368.12138872     A.U. after    7 cycles
 SCF Done:  E(RB+HF-LYP) =  -1368.12138876     A.U. after    8 cycles
 SCF Done:  E(RB+HF-LYP) =  -1368.12138879     A.U. after    7 cycles
 SCF Done:  E(RB+HF-LYP) =  -1368.12138881     A.U. after    8 cycles
 SCF Done:  E(RB+HF-LYP) =  -1368.12138884     A.U. after    8 cycles
 SCF Done:  E(RB+HF-LYP) =  -1368.12138885     A.U. after    8 cycles
 SCF Done:  E(RB+HF-LYP) =  -1368.12138885     A.U. after    8 cycles
 SCF Done:  E(RB+HF-LYP) =  -1368.12138885     A.U. after    8 cycles
 SCF Done:  E(RB+HF-LYP) =  -1368.12138884     A.U. after    7 cycles
 Optimization completed.
    -- Stationary point found.
 Normal termination of Gaussian 03 at Sun Aug  3 14:59:23 2008.
 Gaussian 03:  IA64L-G03RevD.01 13-Oct-2005

 ----------------------------------------------------------------------
 #p nmr=giao b3lyp/Gen scf=tight integral=(grid=ultrafine) scrf=(pcm,so
 lvent=water,read) guess=read geom=checkpoint
 ----------------------------------------------------------------------

 Molecule 14, NMR.
 -----------------
 Redundant internal coordinates taken from checkpoint file:
 molecule_14.chk
 Charge = -1 Multiplicity = 1

                         Standard orientation:
 ---------------------------------------------------------------------
 Center     Atomic     Atomic              Coordinates (Angstroms)
 Number     Number      Type              X           Y           Z
 ---------------------------------------------------------------------
    1         15             0       -1.084262   -0.028994    0.210545
    2          8             0       -2.314902    0.826386   -0.130010
    3          8             0       -1.242888   -1.525615    0.500653
    4          7             0       -0.140423    0.753638    1.425939
    5          1             0       -0.287973    1.760577    1.339744
    6         16             0        0.484363    0.200070   -1.381721
    7          6             0        1.270912    0.398701    1.285081
    8          1             0        1.868417    0.977681    2.000129
    9          1             0        1.381773   -0.665627    1.533490
   10          6             0        1.810933    0.636681   -0.152361
   11          1             0        2.042292    1.703337   -0.286511
   12          6             0        3.064580   -0.181159   -0.436111
   13          1             0        2.851157   -1.243561   -0.243160
   14          1             0        3.370666   -0.062444   -1.487917
   15          8             0       -4.228952   -1.451857   -0.026967
   16          1             0       -3.390333   -1.883898    0.204700
   17          1             0       -3.921123   -0.536242   -0.142697
   18          8             0       -1.471304    3.443498   -0.198529
   19          1             0       -1.893357    2.549437   -0.190956
   20          1             0       -0.922543    3.411544   -0.991047
   21          8             0        0.846576   -3.244179   -0.146027
   22          1             0        0.084782   -2.707268    0.174865
   23          1             0        0.986640   -2.870444   -1.024686
   24          8             0        4.115046    0.296748    0.433473
   25          1             0        4.819519   -0.359967    0.441442
 ---------------------------------------------------------------------

 SCF Done:  E(RB+HF-LYP) =  -1368.29071909     A.U. after   12 cycles

  1  P    Isotropic =   211.6491   Anisotropy =   128.9002

  2  O    Isotropic =   155.7643   Anisotropy =    87.1263

  3  O    Isotropic =   137.4671   Anisotropy =    98.4919

  4  N    Isotropic =   167.3492   Anisotropy =    70.0796

  5  H    Isotropic =    28.6435   Anisotropy =    11.3099

  6  S    Isotropic =   501.4944   Anisotropy =   257.9459

  7  C    Isotropic =   141.5880   Anisotropy =    31.4339

  8  H    Isotropic =    27.7789   Anisotropy =     7.5419

  9  H    Isotropic =    29.0011   Anisotropy =     6.4830

 10  C    Isotropic =   125.6157   Anisotropy =    48.0538

 11  H    Isotropic =    27.2228   Anisotropy =     7.2005

 12  C    Isotropic =   121.8003   Anisotropy =    60.0678

 13  H    Isotropic =    27.6987   Anisotropy =     6.6314

 14  H    Isotropic =    27.4217   Anisotropy =     5.5564

 15  O    Isotropic =   315.3142   Anisotropy =    46.7135

 16  H    Isotropic =    29.8574   Anisotropy =    21.0795

 17  H    Isotropic =    29.4160   Anisotropy =    22.6043

 18  O    Isotropic =   321.1793   Anisotropy =    57.9284

 19  H    Isotropic =    26.0191   Anisotropy =    31.1154

 20  H    Isotropic =    30.8871   Anisotropy =    15.6140

 21  O    Isotropic =   315.1533   Anisotropy =    38.6467

 22  H    Isotropic =    26.5355   Anisotropy =    29.4560

 23  H    Isotropic =    31.2178   Anisotropy =    14.5456

 24  O    Isotropic =   311.5246   Anisotropy =    78.8843

 25  H    Isotropic =    30.0124   Anisotropy =    21.0056

 The electronic state is 1-A.
 Alpha  occ. eigenvalues --  -88.86304 -77.14192 -19.14653 -19.13176 -19.13051
 Alpha  occ. eigenvalues --  -19.12700 -19.11138 -19.10813 -14.32872 -10.22764
 Alpha  occ. eigenvalues --  -10.21293 -10.21140  -7.92316  -6.61641  -5.88666
 Alpha  occ. eigenvalues --   -5.88393  -5.87818  -4.77974  -4.77747  -4.77633
 Alpha  occ. eigenvalues --   -1.01834  -1.00099  -0.99367  -0.99065  -0.98379
 Alpha  occ. eigenvalues --   -0.93486  -0.89999  -0.78695  -0.69038  -0.66359
 Alpha  occ. eigenvalues --   -0.57287  -0.54336  -0.51065  -0.50802  -0.50289
 Alpha  occ. eigenvalues --   -0.50181  -0.47903  -0.46358  -0.44375  -0.41775
 Alpha  occ. eigenvalues --   -0.40539  -0.39914  -0.39276  -0.38637  -0.38121
 Alpha  occ. eigenvalues --   -0.37044  -0.36648  -0.33948  -0.32640  -0.31024
 Alpha  occ. eigenvalues --   -0.30320  -0.30189  -0.30077  -0.29548  -0.28891
 Alpha  occ. eigenvalues --   -0.28240  -0.27431  -0.25819  -0.22710
 Alpha virt. eigenvalues --   -0.00802   0.00080   0.01060   0.01476   0.02053
 Alpha virt. eigenvalues --    0.02700   0.03803   0.03952   0.05471   0.05693
 Alpha virt. eigenvalues --    0.06124   0.07472   0.07961   0.08114   0.09016

 Mulliken atomic charges:
              1
     1  P    1.307944
     2  O   -1.010753
     3  O   -1.033346
     4  N   -0.546652
     5  H    0.249732
     6  S   -0.162109
     7  C   -0.083866
     8  H    0.221785
     9  H    0.183891
    10  C   -0.332925
    11  H    0.154357
    12  C    0.144735
    13  H    0.172565
    14  H    0.173800
    15  O   -0.604821
    16  H    0.299183
    17  H    0.304420
    18  O   -0.639906
    19  H    0.352702
    20  H    0.283196
    21  O   -0.626951
    22  H    0.352505
    23  H    0.271539
    24  O   -0.730118
    25  H    0.299092
 Sum of Mulliken charges=  -1.00000

 Dipole moment (field-independent basis, Debye):
    X=    12.2005    Y=     2.7590    Z=    -1.7223  Tot=    12.6266
 Quadrupole moment (field-independent basis, Debye-Ang):
   XX=  -125.2502   YY=  -126.9552   ZZ=   -95.3362
   XY=    -4.4876   XZ=    -1.0353   YZ=     0.4901

 Normal termination of Gaussian 03 at Sun Aug  3 15:10:25 2008.
