 Gaussian 03, Revision D.01,

 -------------------------------------------------------------------
 #p opt=gdiis b3lyp/aug-cc-pVDZ scf=tight guess=read geom=checkpoint
 -------------------------------------------------------------------

 Molecule 2, geometry.
 ---------------------
 Redundant internal coordinates taken from checkpoint file:
 molecule_2.chk
 Charge = -1 Multiplicity = 1

 SCF Done:  E(RB+HF-LYP) =  -1292.86288775     A.U. after   12 cycles
 SCF Done:  E(RB+HF-LYP) =  -1292.86648934     A.U. after   12 cycles
 SCF Done:  E(RB+HF-LYP) =  -1292.86772226     A.U. after   13 cycles
 SCF Done:  E(RB+HF-LYP) =  -1292.86780395     A.U. after   10 cycles
 SCF Done:  E(RB+HF-LYP) =  -1292.86794030     A.U. after   10 cycles
 SCF Done:  E(RB+HF-LYP) =  -1292.86813727     A.U. after   10 cycles
 SCF Done:  E(RB+HF-LYP) =  -1292.86840351     A.U. after   11 cycles
 SCF Done:  E(RB+HF-LYP) =  -1292.86857592     A.U. after   10 cycles
 SCF Done:  E(RB+HF-LYP) =  -1292.86901010     A.U. after   11 cycles
 SCF Done:  E(RB+HF-LYP) =  -1292.86909892     A.U. after   10 cycles
 SCF Done:  E(RB+HF-LYP) =  -1292.87704756     A.U. after    8 cycles
 SCF Done:  E(RB+HF-LYP) =  -1292.87705023     A.U. after    9 cycles
 SCF Done:  E(RB+HF-LYP) =  -1292.87705301     A.U. after    9 cycles
 SCF Done:  E(RB+HF-LYP) =  -1292.87705456     A.U. after   10 cycles
 SCF Done:  E(RB+HF-LYP) =  -1292.87705554     A.U. after    9 cycles
 SCF Done:  E(RB+HF-LYP) =  -1292.87705600     A.U. after    8 cycles
 SCF Done:  E(RB+HF-LYP) =  -1292.87705646     A.U. after    8 cycles
 SCF Done:  E(RB+HF-LYP) =  -1292.87705687     A.U. after    8 cycles
 SCF Done:  E(RB+HF-LYP) =  -1292.87705715     A.U. after    8 cycles
 Optimization completed.
    -- Stationary point found.
 Normal termination of Gaussian 03 at Mon Jul 28 12:40:53 2008.
 Gaussian 03:  IA64L-G03RevD.01 13-Oct-2005

 ----------------------------------------------------------------------
 #p nmr=giao b3lyp/Gen scf=tight integral=(grid=ultrafine) guess=read s
 crf=(pcm,solvent=water,read) geom=checkpoint
 ----------------------------------------------------------------------

 Molecule 2, NMR.
 ----------------
 Redundant internal coordinates taken from checkpoint file:
 molecule_2.chk
 Charge = -1 Multiplicity = 1

                         Standard orientation:
 ---------------------------------------------------------------------
 Center     Atomic     Atomic              Coordinates (Angstroms)
 Number     Number      Type              X           Y           Z
 ---------------------------------------------------------------------
    1          6             0       -1.696679    0.096628   -0.607756
    2          1             0       -1.311428    0.460028   -1.570833
    3          1             0       -1.827971    0.969965    0.041335
    4          7             0       -0.621187   -0.739283   -0.028301
    5          1             0       -0.859252   -1.081359    0.911155
    6         15             0        1.154337    0.157239    0.287370
    7          8             0        1.873907   -1.135399    0.749280
    8          8             0        0.720725    1.154025    1.384583
    9         16             0        1.601296    0.880414   -1.544115
   10          6             0       -2.981893   -0.661663   -0.783896
   11          1             0       -2.929898   -1.564125   -1.403098
   12          6             0       -4.154311   -0.301111   -0.251059
   13          1             0       -5.062478   -0.880031   -0.424332
   14          1             0       -4.243356    0.588998    0.375024
   15          8             0       -0.046585   -1.165892    2.940246
   16          1             0        0.738702   -1.500819    2.466544
   17          1             0        0.080358   -0.207345    2.800800
   18          8             0        1.189259   -2.676753   -1.443001
   19          1             0        1.601151   -2.313454   -0.621043
   20          1             0        1.434466   -1.993523   -2.085622
   21          8             0       -0.353658    3.449413    0.181266
   22          1             0        0.010254    2.726918    0.740029
   23          1             0        0.088780    3.263035   -0.659082
   24          1             0       -0.378709   -1.544800   -0.620198
 ---------------------------------------------------------------------

 SCF Done:  E(RB+HF-LYP) =  -1293.03301495     A.U. after   12 cycles

  1  C    Isotropic =   143.2790   Anisotropy =    27.0166

  2  H    Isotropic =    27.4094   Anisotropy =     4.8702

  3  H    Isotropic =    28.1211   Anisotropy =     4.1230

  4  N    Isotropic =   162.7290   Anisotropy =    70.4691

  5  H    Isotropic =    26.4385   Anisotropy =    12.7836

  6  P    Isotropic =   179.5253   Anisotropy =   123.2020

  7  O    Isotropic =   107.7041   Anisotropy =   116.9694

  8  O    Isotropic =   114.9888   Anisotropy =   130.4381

  9  S    Isotropic =   616.3613   Anisotropy =   360.9905

 10  C    Isotropic =    54.3438   Anisotropy =   159.2302

 11  H    Isotropic =    25.2576   Anisotropy =     5.6314

 12  C    Isotropic =    73.5293   Anisotropy =   137.2740

 13  H    Isotropic =    26.1298   Anisotropy =     5.6082

 14  H    Isotropic =    26.0351   Anisotropy =     6.2937

 15  O    Isotropic =   300.6494   Anisotropy =    27.9757

 16  H    Isotropic =    28.7127   Anisotropy =    19.1897

 17  H    Isotropic =    28.6010   Anisotropy =    19.6457

 18  O    Isotropic =   303.8514   Anisotropy =    30.3450

 19  H    Isotropic =    25.9041   Anisotropy =    26.3833

 20  H    Isotropic =    29.9968   Anisotropy =    15.4630

 21  O    Isotropic =   315.6581   Anisotropy =    36.8398

 22  H    Isotropic =    26.6514   Anisotropy =    28.1409

 23  H    Isotropic =    30.6252   Anisotropy =    16.5932

 24  H    Isotropic =    25.7269   Anisotropy =    14.8447

 The electronic state is 1-A.
 Alpha  occ. eigenvalues --  -88.82514 -77.14415 -19.13952 -19.13929 -19.12667
 Alpha  occ. eigenvalues --  -19.10663 -19.10567 -14.38576 -10.22499 -10.19964
 Alpha  occ. eigenvalues --  -10.18933  -7.88571  -6.61764  -5.85019  -5.84350
 Alpha  occ. eigenvalues --   -5.84275  -4.78216  -4.77775  -4.77732  -1.00804
 Alpha  occ. eigenvalues --   -1.00259  -0.99077  -0.98065  -0.93558  -0.92802
 Alpha  occ. eigenvalues --   -0.78897  -0.68800  -0.68446  -0.57651  -0.54624
 Alpha  occ. eigenvalues --   -0.51914  -0.50955  -0.50732  -0.49785  -0.48989
 Alpha  occ. eigenvalues --   -0.45553  -0.44624  -0.41334  -0.41053  -0.39551
 Alpha  occ. eigenvalues --   -0.39170  -0.38619  -0.38142  -0.36408  -0.35623
 Alpha  occ. eigenvalues --   -0.31705  -0.30982  -0.30493  -0.29872  -0.29461
 Alpha  occ. eigenvalues --   -0.28412  -0.28374  -0.27199  -0.23097  -0.22125
 Alpha virt. eigenvalues --   -0.01758  -0.00740   0.01269   0.01476   0.01505
 Alpha virt. eigenvalues --    0.03259   0.03504   0.03745   0.04105   0.04797
 Alpha virt. eigenvalues --    0.05607   0.06523   0.06913   0.07530   0.08174

 Mulliken atomic charges:
              1
     1  C   -0.231246
     2  H    0.226138
     3  H    0.195856
     4  N   -0.581548
     5  H    0.283228
     6  P    1.233537
     7  O   -0.977079
     8  O   -0.945456
     9  S   -0.635946
    10  C    0.192219
    11  H    0.160462
    12  C   -0.509125
    13  H    0.147260
    14  H    0.143170
    15  O   -0.599087
    16  H    0.305192
    17  H    0.304179
    18  O   -0.612448
    19  H    0.339112
    20  H    0.284007
    21  O   -0.621712
    22  H    0.337131
    23  H    0.272215
    24  H    0.289940
 Sum of Mulliken charges=  -1.00000

 Dipole moment (field-independent basis, Debye):
    X=    -8.1007    Y=    -3.2011    Z=    -3.3762  Tot=     9.3417
 Quadrupole moment (field-independent basis, Debye-Ang):
   XX=   -98.2074   YY=  -121.4937   ZZ=  -105.0856
   XY=     5.4577   XZ=     3.7970   YZ=     0.1743

 Normal termination of Gaussian 03 at Mon Jul 28 13:25:39 2008.
