 Gaussian 03, Revision D.02,
 Gaussian 03:  AM64L-G03RevD.02  1-Mar-2006

 ----------------------------------------------------------------------
 #p opt=(tight,gdiis) ub3lyp/EPR-II scrf=(scipcm,solvent=thf) guess=mix
  geom=connectivity scf=(tight,novaracc,noincfock) integral=(grid=ultra
 fine)
 ----------------------------------------------------------------------

 ------------------------------------------
 Pyrene cation radical in various solvents.
 ------------------------------------------
 Symbolic Z-matrix:
 Charge =  1 Multiplicity = 2

 SCF Done:  E(UB+HF-LYP) =  -615.638733123     A.U. after   22 cycles
 SCF Done:  E(UB+HF-LYP) =  -615.645115781     A.U. after   15 cycles
 SCF Done:  E(UB+HF-LYP) =  -615.645433642     A.U. after   11 cycles
 SCF Done:  E(UB+HF-LYP) =  -615.645445561     A.U. after   10 cycles
 SCF Done:  E(UB+HF-LYP) =  -615.645445031     A.U. after    6 cycles
 SCF Done:  E(UB+HF-LYP) =  -615.645444968     A.U. after    6 cycles
 Optimization completed.
    -- Stationary point found.

                         Standard orientation:
 ---------------------------------------------------------------------
 Center     Atomic     Atomic              Coordinates (Angstroms)
 Number     Number      Type              X           Y           Z
 ---------------------------------------------------------------------
    1          6             0        0.000000    0.000000    3.552048
    2          6             0        0.000000    1.213703    2.853445
    3          6             0        0.000000    1.237140    1.424811
    4          6             0        0.000000    0.000000    0.710464
    5          6             0        0.000000   -1.237140    1.424811
    6          6             0        0.000000   -1.213703    2.853445
    7          6             0        0.000000    2.461106    0.695985
    8          6             0        0.000000    0.000000   -0.710464
    9          6             0        0.000000    1.237140   -1.424811
   10          6             0        0.000000    2.461106   -0.695985
   11          6             0        0.000000    1.213703   -2.853445
   12          1             0        0.000000    2.154887   -3.395750
   13          6             0        0.000000    0.000000   -3.552048
   14          6             0        0.000000   -1.213703   -2.853445
   15          6             0        0.000000   -1.237140   -1.424811
   16          6             0        0.000000   -2.461106   -0.695985
   17          6             0        0.000000   -2.461106    0.695985
   18          1             0        0.000000   -3.400922    1.238967
   19          1             0        0.000000   -3.400922   -1.238967
   20          1             0        0.000000    3.400922    1.238967
   21          1             0        0.000000    0.000000    4.636304
   22          1             0        0.000000    2.154887    3.395750
   23          1             0        0.000000   -2.154887    3.395750
   24          1             0        0.000000    3.400922   -1.238967
   25          1             0        0.000000    0.000000   -4.636304
   26          1             0        0.000000   -2.154887   -3.395750
 ---------------------------------------------------------------------

 The electronic state is 2-B1G.
 Alpha  occ. eigenvalues --  -10.26062 -10.26061 -10.26061 -10.26061 -10.25956
 Alpha  occ. eigenvalues --  -10.25956 -10.25955 -10.25955 -10.25327 -10.25327
 Alpha  occ. eigenvalues --  -10.25268 -10.25268 -10.25261 -10.25214 -10.24093
 Alpha  occ. eigenvalues --  -10.24093  -0.94059  -0.89840  -0.87979  -0.84431
 Alpha  occ. eigenvalues --   -0.81659  -0.79471  -0.77828  -0.75816  -0.67926
 Alpha  occ. eigenvalues --   -0.67235  -0.67153  -0.65473  -0.58969  -0.56823
 Alpha  occ. eigenvalues --   -0.56192  -0.54875  -0.53674  -0.51424  -0.48170
 Alpha  occ. eigenvalues --   -0.48020  -0.48014  -0.46255  -0.45854  -0.44540
 Alpha  occ. eigenvalues --   -0.43885  -0.43574  -0.41259  -0.41193  -0.41124
 Alpha  occ. eigenvalues --   -0.39189  -0.37363  -0.36941  -0.34731  -0.32771
 Alpha  occ. eigenvalues --   -0.30337  -0.28019  -0.25404
 Alpha virt. eigenvalues --   -0.12224  -0.07385  -0.06152  -0.04268  -0.00761
 Alpha virt. eigenvalues --    0.00002   0.00123   0.00373   0.01717   0.02381
 Alpha virt. eigenvalues --    0.03210   0.03891   0.04665   0.05328   0.06601

  Beta  occ. eigenvalues --  -10.26075 -10.26074 -10.26074 -10.26073 -10.25627
  Beta  occ. eigenvalues --  -10.25627 -10.25625 -10.25625 -10.25268 -10.25221
  Beta  occ. eigenvalues --  -10.25203 -10.25203 -10.25146 -10.25146 -10.24221
  Beta  occ. eigenvalues --  -10.24221  -0.93866  -0.89433  -0.87645  -0.84038
  Beta  occ. eigenvalues --   -0.81173  -0.79149  -0.77807  -0.74920  -0.67399
  Beta  occ. eigenvalues --   -0.67107  -0.67029  -0.65203  -0.58692  -0.56629
  Beta  occ. eigenvalues --   -0.56020  -0.54685  -0.53548  -0.51264  -0.48021
  Beta  occ. eigenvalues --   -0.47855  -0.47831  -0.46198  -0.45310  -0.44472
  Beta  occ. eigenvalues --   -0.43672  -0.43373  -0.41106  -0.41100  -0.39987
  Beta  occ. eigenvalues --   -0.38115  -0.37189  -0.36913  -0.33603  -0.31056
  Beta  occ. eigenvalues --   -0.29218  -0.28029
  Beta virt. eigenvalues --   -0.19852  -0.09930  -0.06912  -0.05701  -0.03072
  Beta virt. eigenvalues --   -0.00721   0.00159   0.00417   0.01096   0.01768
  Beta virt. eigenvalues --    0.02412   0.03206   0.03899   0.05378   0.05421

 Mulliken atomic charges:
              1
     1  C   -0.106539
     2  C   -0.264508
     3  C    0.456938
     4  C   -0.040989
     5  C    0.456938
     6  C   -0.264508
     7  C   -0.273100
     8  C   -0.040989
     9  C    0.456938
    10  C   -0.273100
    11  C   -0.264508
    12  H    0.167628
    13  C   -0.106539
    14  C   -0.264508
    15  C    0.456938
    16  C   -0.273100
    17  C   -0.273100
    18  H    0.160743
    19  H    0.160743
    20  H    0.160743
    21  H    0.152128
    22  H    0.167628
    23  H    0.167628
    24  H    0.160743
    25  H    0.152128
    26  H    0.167628
 Sum of Mulliken charges=   1.00000

 Dipole moment (field-independent basis, Debye):
    X=     0.0000    Y=     0.0000    Z=     0.0000  Tot=     0.0000
 Quadrupole moment (field-independent basis, Debye-Ang):
   XX=   -93.9443   YY=   -54.8539   ZZ=   -43.1339
   XY=     0.0000   XZ=     0.0000   YZ=     0.0000

 Normal termination of Gaussian 03 at Sat Mar 10 00:15:23 2007.
