 Gaussian 03, Revision D.01,
 Gaussian 03:  AM64L-G03RevD.01 13-Oct-2005

 ----------------------------------------------------------------------
 #p ub3lyp/EPR-II scrf=(pcm,solvent=water,read) scf=tight guess=read ge
 om=connectivity integral=(grid=ultrafine)
 ----------------------------------------------------------------------

 ------------------------------------
 Explicitly hydrated tyrosyl radical.
 ------------------------------------
 Symbolic Z-matrix:
 Charge =  0 Multiplicity = 2

                         Standard orientation:
 ---------------------------------------------------------------------
 Center     Atomic     Atomic              Coordinates (Angstroms)
 Number     Number      Type              X           Y           Z
 ---------------------------------------------------------------------
    1          8             0       -3.638997   -0.975564    0.492335
    2          6             0       -2.425897   -0.652531    0.396578
    3          8             0       -1.461353   -1.253917    0.948069
    4          6             0       -2.080566    0.611611   -0.440287
    5          7             0       -1.733661    1.717265    0.529315
    6          1             0       -2.604369    1.899662    1.076725
    7          1             0       -2.993940    0.971213   -0.993917
    8          1             0       -1.452147    2.588709    0.032525
    9          1             0       -0.975893    1.428362    1.198651
   10          6             0       -0.976278    0.383773   -1.504841
   11          1             0       -1.299993   -0.482640   -2.096842
   12          1             0       -0.999965    1.249895   -2.179726
   13          6             0        0.446971    0.176895   -1.044973
   14          6             0        0.973061   -1.126674   -0.830931
   15          6             0        1.299501    1.299143   -0.872941
   16          6             0        2.282037   -1.305918   -0.457391
   17          1             0        0.324769   -1.990353   -0.937771
   18          6             0        2.614019    1.151148   -0.498104
   19          1             0        0.894447    2.293228   -1.040880
   20          6             0        3.159900   -0.169305   -0.275063
   21          1             0        2.704836   -2.292263   -0.289197
   22          1             0        3.280050    1.998265   -0.360147
   23          8             0        4.376933   -0.326838    0.069270
   24          1             0        4.829082   -2.133441    0.367475
   25          8             0       -0.968468    4.073437   -0.813370
   26          1             0       -0.925228    4.123830   -1.785734
   27          1             0       -0.191742    4.574208   -0.504220
   28          8             0       -0.989871   -3.816435   -0.082820
   29          1             0       -1.817552   -4.080073   -0.516577
   30          1             0       -1.231547   -3.004246    0.405763
   31          8             0        0.102053    0.556844    2.284808
   32          1             0       -0.262156   -0.274325    1.906284
   33          1             0       -0.277221    0.599932    3.181918
   34          8             0       -4.300139    1.535390    1.626140
   35          1             0       -4.330894    1.441440    2.595376
   36          1             0       -4.354793    0.616199    1.288835
   37          8             0       -5.562632   -1.506842   -1.500329
   38          1             0       -5.164756   -2.276316   -1.941149
   39          1             0       -4.879769   -1.247520   -0.851189
   40          8             0        5.024318   -3.088229    0.427875
   41          1             0        4.786986   -3.309092    1.343506
   42          1             0        5.987916    2.440374   -0.596430
   43          8             0        5.667641    2.218461    0.293829
   44          1             0        5.337122    1.304800    0.192775
 ---------------------------------------------------------------------

 SCF Done:  E(UB+HF-LYP) =  -1164.80185619     A.U. after   14 cycles

 The electronic state is 2-A.
 Alpha  occ. eigenvalues --  -19.16740 -19.16297 -19.15243 -19.14756 -19.12735
 Alpha  occ. eigenvalues --  -19.12596 -19.12551 -19.12240 -19.12201 -19.12092
 Alpha  occ. eigenvalues --  -14.40627 -10.31372 -10.28734 -10.25618 -10.24637
 Alpha  occ. eigenvalues --  -10.22205 -10.21956 -10.21893 -10.21522 -10.21313
 Alpha  occ. eigenvalues --   -1.06374  -1.05032  -1.02795  -1.01573  -1.01285
 Alpha  occ. eigenvalues --   -0.98918  -0.98835  -0.98762  -0.98322  -0.97072
 Alpha  occ. eigenvalues --   -0.96607  -0.87645  -0.79786  -0.77493  -0.73479
 Alpha  occ. eigenvalues --   -0.66005  -0.63502  -0.60160  -0.57221  -0.55795
 Alpha  occ. eigenvalues --   -0.54704  -0.54241  -0.52965  -0.52280  -0.51996
 Alpha  occ. eigenvalues --   -0.51710  -0.51085  -0.50863  -0.50558  -0.49109
 Alpha  occ. eigenvalues --   -0.47758  -0.46848  -0.45426  -0.44951  -0.44434
 Alpha  occ. eigenvalues --   -0.44019  -0.43443  -0.41851  -0.41351  -0.40883
 Alpha  occ. eigenvalues --   -0.40428  -0.39690  -0.39196  -0.37995  -0.37478
 Alpha  occ. eigenvalues --   -0.37313  -0.37001  -0.36664  -0.36567  -0.34996
 Alpha  occ. eigenvalues --   -0.33664  -0.32567  -0.32184  -0.30067  -0.29801
 Alpha  occ. eigenvalues --   -0.29716  -0.29209  -0.28912  -0.28576  -0.28560
 Alpha  occ. eigenvalues --   -0.27546  -0.26903  -0.23842
 Alpha virt. eigenvalues --   -0.03283  -0.02697  -0.00015   0.01071   0.02846
 Alpha virt. eigenvalues --    0.03268   0.04435   0.05083   0.05624   0.06088
 Alpha virt. eigenvalues --    0.07922   0.08193   0.08366   0.09816   0.10400

  Beta  occ. eigenvalues --  -19.16740 -19.15380 -19.15243 -19.14755 -19.12738
  Beta  occ. eigenvalues --  -19.12599 -19.12551 -19.12232 -19.12189 -19.12092
  Beta  occ. eigenvalues --  -14.40629 -10.31374 -10.28738 -10.25556 -10.24066
  Beta  occ. eigenvalues --  -10.22125 -10.21843 -10.21688 -10.21570 -10.21345
  Beta  occ. eigenvalues --   -1.06355  -1.03353  -1.02793  -1.01572  -1.01280
  Beta  occ. eigenvalues --   -0.98922  -0.98832  -0.98748  -0.98320  -0.97051
  Beta  occ. eigenvalues --   -0.96588  -0.86907  -0.79240  -0.77171  -0.72671
  Beta  occ. eigenvalues --   -0.65779  -0.63094  -0.59725  -0.57155  -0.55726
  Beta  occ. eigenvalues --   -0.54695  -0.54240  -0.52961  -0.52212  -0.51771
  Beta  occ. eigenvalues --   -0.51626  -0.51008  -0.50834  -0.50460  -0.48945
  Beta  occ. eigenvalues --   -0.47509  -0.46666  -0.45248  -0.44685  -0.44325
  Beta  occ. eigenvalues --   -0.43443  -0.41683  -0.41485  -0.41052  -0.40340
  Beta  occ. eigenvalues --   -0.40301  -0.39461  -0.39054  -0.37915  -0.37411
  Beta  occ. eigenvalues --   -0.37287  -0.36927  -0.36517  -0.36279  -0.33652
  Beta  occ. eigenvalues --   -0.32601  -0.32480  -0.32092  -0.29922  -0.29784
  Beta  occ. eigenvalues --   -0.29708  -0.29203  -0.28809  -0.27912  -0.27894
  Beta  occ. eigenvalues --   -0.27323  -0.26689
  Beta virt. eigenvalues --   -0.15444  -0.02019  -0.00581   0.00111   0.01256
  Beta virt. eigenvalues --    0.02846   0.03383   0.04504   0.05129   0.05659
  Beta virt. eigenvalues --    0.06174   0.07966   0.08241   0.08397   0.09867

 Mulliken atomic charges:
              1
     1  O   -0.427615
     2  C    0.029765
     3  O   -0.420873
     4  C   -0.058270
     5  N   -0.420717
     6  H    0.315960
     7  H    0.250805
     8  H    0.327457
     9  H    0.304011
    10  C   -0.484857
    11  H    0.190024
    12  H    0.183011
    13  C    0.533436
    14  C   -0.256714
    15  C   -0.242931
    16  C   -0.198013
    17  H    0.147451
    18  C   -0.188976
    19  H    0.114738
    20  C    0.237159
    21  H    0.146072
    22  H    0.148011
    23  O   -0.406716
    24  H    0.296175
    25  O   -0.583672
    26  H    0.340493
    27  H    0.342008
    28  O   -0.603399
    29  H    0.301108
    30  H    0.307505
    31  O   -0.593357
    32  H    0.323164
    33  H    0.333540
    34  O   -0.598018
    35  H    0.332713
    36  H    0.311732
    37  O   -0.627828
    38  H    0.296533
    39  H    0.306655
    40  O   -0.605290
    41  H    0.300621
    42  H    0.301282
    43  O   -0.601081
    44  H    0.296899
 Sum of Mulliken charges=   0.00000

 Dipole moment (field-independent basis, Debye):
    X=    -4.4739    Y=    12.7193    Z=    -2.3378  Tot=    13.6843
 Quadrupole moment (field-independent basis, Debye-Ang):
   XX=  -210.9910   YY=  -117.8313   ZZ=   -98.5052
   XY=     3.0543   XZ=   -15.2709   YZ=    -9.9178

 Normal termination of Gaussian 03 at Wed Aug  2 10:58:13 2006.
