 Gaussian 03, Revision D.01,

 ----------------------------------------------------------------------
 #p opt=gdiis b3lyp/Gen scf=tight pseudo=read integral=(grid=ultrafine)
 ----------------------------------------------------------------------

 ---------------------
 Molecule 7, geometry.
 ---------------------
 Symbolic Z-matrix:
 Charge = -1 Multiplicity = 1

 SCF Done:  E(RB+HF-LYP) =  -1403.70444922     A.U. after   16 cycles
 SCF Done:  E(RB+HF-LYP) =  -1403.72776341     A.U. after   14 cycles
 SCF Done:  E(RB+HF-LYP) =  -1403.73868743     A.U. after   13 cycles
 SCF Done:  E(RB+HF-LYP) =  -1403.74706006     A.U. after   14 cycles
 SCF Done:  E(RB+HF-LYP) =  -1403.75501013     A.U. after   21 cycles
 SCF Done:  E(RB+HF-LYP) =  -1403.75979015     A.U. after   13 cycles
 SCF Done:  E(RB+HF-LYP) =  -1403.76187519     A.U. after   13 cycles
 SCF Done:  E(RB+HF-LYP) =  -1403.76292382     A.U. after   24 cycles
 SCF Done:  E(RB+HF-LYP) =  -1403.76309885     A.U. after   12 cycles
 SCF Done:  E(RB+HF-LYP) =  -1403.76320429     A.U. after   11 cycles
 SCF Done:  E(RB+HF-LYP) =  -1403.76344768     A.U. after    8 cycles
 SCF Done:  E(RB+HF-LYP) =  -1403.76344785     A.U. after    8 cycles
 SCF Done:  E(RB+HF-LYP) =  -1403.76344812     A.U. after    9 cycles
 SCF Done:  E(RB+HF-LYP) =  -1403.76344835     A.U. after    9 cycles
 SCF Done:  E(RB+HF-LYP) =  -1403.76344851     A.U. after    9 cycles
 SCF Done:  E(RB+HF-LYP) =  -1403.76344861     A.U. after    9 cycles
 SCF Done:  E(RB+HF-LYP) =  -1403.76344870     A.U. after    9 cycles
 SCF Done:  E(RB+HF-LYP) =  -1403.76344876     A.U. after    9 cycles
 SCF Done:  E(RB+HF-LYP) =  -1403.76344877     A.U. after    8 cycles
 Optimization completed.
    -- Stationary point found.
 Normal termination of Gaussian 03 at Sat Aug  2 17:30:18 2008.
 Gaussian 03:  IA64L-G03RevD.01 13-Oct-2005

 ----------------------------------------------------------------------
 #p nmr=(giao,spinspin) b3lyp/Gen scf=tight integral=(grid=ultrafine) p
 seudo=read scrf=(pcm,solvent=water,read) guess=read geom=checkpoint
 ----------------------------------------------------------------------

 Molecule 7, NMR and scalar couplings.
 -------------------------------------
 Redundant internal coordinates taken from checkpoint file:
 molecule_7.chk
 Charge = -1 Multiplicity = 1

                         Standard orientation:
 ---------------------------------------------------------------------
 Center     Atomic     Atomic              Coordinates (Angstroms)
 Number     Number      Type              X           Y           Z
 ---------------------------------------------------------------------
    1         15             0       -2.124875   -0.079420   -0.180016
    2          8             0       -3.404046   -0.915891   -0.022937
    3          8             0       -2.157919    1.366524   -0.688679
    4          7             0       -1.003266   -0.976619   -1.123582
    5          1             0       -1.079686   -1.969953   -0.904743
    6         16             0       -1.145730   -0.103900    1.798200
    7          6             0        0.376343   -0.494031   -1.197408
    8          1             0        0.923419   -1.113526   -1.919541
    9          1             0        0.361969    0.534607   -1.579889
   10          6             0        0.543248    0.427259    1.214654
   11          1             0        1.169310    0.418538    2.113179
   12          8             0       -5.234612    1.234814   -0.941284
   13          1             0       -4.383458    1.690827   -1.033937
   14          1             0       -4.934417    0.368225   -0.614968
   15          8             0       -2.540039   -3.523512    0.217935
   16          1             0       -2.983970   -2.645138    0.127118
   17          1             0       -2.225493   -3.515075    1.129475
   18          8             0       -0.883863    3.573274    0.329980
   19          1             0       -1.352561    2.803665   -0.072199
   20          1             0       -1.330388    3.684023    1.176679
   21          6             0        1.092681   -0.527169    0.164088
   22          1             0        1.156647   -1.549336    0.553269
   23          1             0        0.484856    1.454317    0.833703
   24         53             0        3.266258   -0.014890   -0.193626
 ---------------------------------------------------------------------

 SCF Done:  E(RB+HF-LYP) =  -1403.92448571     A.U. after   13 cycles

  1  P    Isotropic =   255.8836   Anisotropy =   227.5302

  2  O    Isotropic =   155.7198   Anisotropy =    79.4641

  3  O    Isotropic =   155.7965   Anisotropy =    88.8312

  4  N    Isotropic =   149.6124   Anisotropy =    69.5651

  5  H    Isotropic =    27.4028   Anisotropy =     8.5480

  6  S    Isotropic =   403.7849   Anisotropy =   226.3734

  7  C    Isotropic =   135.2099   Anisotropy =    51.8929

  8  H    Isotropic =    27.8347   Anisotropy =     5.9090

  9  H    Isotropic =    27.5125   Anisotropy =     5.9361

 10  C    Isotropic =   145.3284   Anisotropy =    40.1798

 11  H    Isotropic =    28.4895   Anisotropy =     6.6810

 12  O    Isotropic =   315.3889   Anisotropy =    47.6398

 13  H    Isotropic =    30.1414   Anisotropy =    20.4200

 14  H    Isotropic =    29.3006   Anisotropy =    23.2887

 15  O    Isotropic =   320.0057   Anisotropy =    55.7362

 16  H    Isotropic =    26.2338   Anisotropy =    31.0981

 17  H    Isotropic =    30.6933   Anisotropy =    15.8065

 18  O    Isotropic =   324.2970   Anisotropy =    61.1545

 19  H    Isotropic =    25.8401   Anisotropy =    32.1010

 20  H    Isotropic =    30.7566   Anisotropy =    17.0415

 21  C    Isotropic =   122.0382   Anisotropy =    62.4172

 22  H    Isotropic =    26.0689   Anisotropy =     9.5728

 23  H    Isotropic =    27.1454   Anisotropy =     6.2221

 24  I    Isotropic =   270.4404   Anisotropy =    17.1679

 The electronic state is 1-A.
 Alpha  occ. eigenvalues --  -88.86933 -77.14310 -19.13287 -19.13253 -19.12590
 Alpha  occ. eigenvalues --  -19.11104 -19.10742 -14.32861 -10.23748 -10.21861
 Alpha  occ. eigenvalues --  -10.21723  -7.92939  -6.61702  -5.89312  -5.89003
 Alpha  occ. eigenvalues --   -5.88424  -4.78005  -4.77843  -4.77711  -2.13052
 Alpha  occ. eigenvalues --   -2.12716  -2.12702  -2.11773  -2.11773  -1.00163
 Alpha  occ. eigenvalues --   -0.99522  -0.99036  -0.98376  -0.93578  -0.89803
 Alpha  occ. eigenvalues --   -0.80438  -0.73523  -0.66919  -0.64166  -0.58707
 Alpha  occ. eigenvalues --   -0.55155  -0.51100  -0.50603  -0.50394  -0.48068
 Alpha  occ. eigenvalues --   -0.46751  -0.44397  -0.42019  -0.41043  -0.39766
 Alpha  occ. eigenvalues --   -0.39275  -0.38632  -0.38180  -0.37635  -0.36716
 Alpha  occ. eigenvalues --   -0.35806  -0.31779  -0.31059  -0.30340  -0.30183
 Alpha  occ. eigenvalues --   -0.29887  -0.29527  -0.28674  -0.28239  -0.25626
 Alpha  occ. eigenvalues --   -0.25355  -0.25305  -0.22835
 Alpha virt. eigenvalues --   -0.05237  -0.00517   0.00252   0.01138   0.02011
 Alpha virt. eigenvalues --    0.02685   0.03625   0.04131   0.04406   0.05068
 Alpha virt. eigenvalues --    0.05752   0.06869   0.07913   0.08405   0.08491

 Mulliken atomic charges:
              1
     1  P    1.292653
     2  O   -0.983033
     3  O   -1.029862
     4  N   -0.527523
     5  H    0.248758
     6  S   -0.149370
     7  C   -0.040256
     8  H    0.221885
     9  H    0.216908
    10  C   -0.414622
    11  H    0.226739
    12  O   -0.603467
    13  H    0.297206
    14  H    0.306758
    15  O   -0.638144
    16  H    0.349618
    17  H    0.286055
    18  O   -0.653211
    19  H    0.369032
    20  H    0.282382
    21  C   -0.450861
    22  H    0.190475
    23  H    0.193368
    24  I    0.008513
 Sum of Mulliken charges=  -1.00000

 Dipole moment (field-independent basis, Debye):
    X=    14.1144    Y=    -3.0992    Z=     3.4404  Tot=    14.8546
 Quadrupole moment (field-independent basis, Debye-Ang):
   XX=  -182.5092   YY=  -141.9619   ZZ=  -114.7405
   XY=    -1.1651   XZ=   -11.5855   YZ=     2.6869

 Normal termination of Gaussian 03 at Sat Aug  2 19:05:31 2008.
