 Gaussian 03, Revision D.01,

 ----------------------------------------------------------------------
 #p opt=gdiis b3lyp/Gen scf=tight pseudo=read geom=checkpoint guess=rea
 d
 ----------------------------------------------------------------------

 Molecule 5, geometry.
 ---------------------
 Redundant internal coordinates taken from checkpoint file:
 molecule_5.chk
 Charge = -1 Multiplicity = 1

 SCF Done:  E(RB+HF-LYP) =  -1403.76053240     A.U. after    1 cycles
 Optimization completed.
    -- Stationary point found.
 Normal termination of Gaussian 03 at Mon Jul 28 16:13:31 2008.
 Gaussian 03:  IA64L-G03RevD.01 13-Oct-2005

 ----------------------------------------------------------------------
 #p nmr=(giao,spinspin) b3lyp/Gen scf=tight integral=(grid=ultrafine) p
 seudo=read scrf=(pcm,solvent=water,read) guess=read geom=checkpoint
 ----------------------------------------------------------------------

 Molecule 5, NMR and scalar couplings.
 -------------------------------------
 Redundant internal coordinates taken from checkpoint file:
 molecule_5.chk
 Charge = -1 Multiplicity = 1

                         Standard orientation:
 ---------------------------------------------------------------------
 Center     Atomic     Atomic              Coordinates (Angstroms)
 Number     Number      Type              X           Y           Z
 ---------------------------------------------------------------------
    1         15             0        2.416838   -0.019167   -0.206830
    2          8             0        3.701633    0.798274   -0.014285
    3          8             0        2.488474   -1.527661   -0.471594
    4          7             0        1.368111    0.759229   -1.333432
    5          1             0        1.525293    1.766800   -1.275624
    6         16             0        1.037251    0.317585    1.528459
    7          6             0       -0.020828    0.400586   -1.063382
    8          1             0       -0.683189    0.988039   -1.711328
    9          1             0       -0.155344   -0.658694   -1.318288
   10          6             0       -0.439685    0.611150    0.424775
   11          1             0       -0.753763    1.650701    0.586518
   12          6             0       -1.526574   -0.344992    0.874332
   13          1             0       -1.282510   -1.385261    0.634774
   14          1             0       -1.788483   -0.227145    1.927524
   15         53             0       -3.485244    0.053773   -0.161409
   16          8             0        5.512762   -1.563594   -0.250023
   17          1             0        4.637895   -1.960313   -0.393192
   18          1             0        5.260433   -0.632378   -0.127983
   19          8             0        2.900087    3.440055   -0.008003
   20          1             0        3.317160    2.544890   -0.002693
   21          1             0        2.444852    3.468723    0.841876
   22          8             0        0.394653   -3.210760    0.123617
   23          1             0        1.149527   -2.628257   -0.135883
   24          1             0        0.562360   -3.376526    1.058066
 ---------------------------------------------------------------------

 SCF Done:  E(RB+HF-LYP) =  -1403.91870515     A.U. after   12 cycles

  1  P    Isotropic =   211.7451   Anisotropy =   123.8420

  2  O    Isotropic =   152.4816   Anisotropy =    79.8309

  3  O    Isotropic =   137.8851   Anisotropy =    98.0206

  4  N    Isotropic =   163.7546   Anisotropy =    74.7672

  5  H    Isotropic =    28.3450   Anisotropy =    11.8184

  6  S    Isotropic =   446.7763   Anisotropy =   216.0690

  7  C    Isotropic =   142.2033   Anisotropy =    34.7412

  8  H    Isotropic =    27.8581   Anisotropy =     7.0130

  9  H    Isotropic =    29.1504   Anisotropy =     5.2239

 10  C    Isotropic =   122.7034   Anisotropy =    61.2926

 11  H    Isotropic =    27.0215   Anisotropy =     7.2788

 12  C    Isotropic =   149.5512   Anisotropy =    37.6079

 13  H    Isotropic =    27.2533   Anisotropy =    12.7785

 14  H    Isotropic =    27.5630   Anisotropy =     9.8878

 15  I    Isotropic =   272.8467   Anisotropy =    19.0457

 16  O    Isotropic =   315.4580   Anisotropy =    46.8188

 17  H    Isotropic =    29.8417   Anisotropy =    21.4186

 18  H    Isotropic =    29.4834   Anisotropy =    22.2640

 19  O    Isotropic =   320.8439   Anisotropy =    56.2728

 20  H    Isotropic =    26.1879   Anisotropy =    30.4182

 21  H    Isotropic =    30.8930   Anisotropy =    15.3634

 22  O    Isotropic =   317.3173   Anisotropy =    47.7129

 23  H    Isotropic =    26.0986   Anisotropy =    30.8637

 24  H    Isotropic =    30.9847   Anisotropy =    16.1816

 The electronic state is 1-A.
 Alpha  occ. eigenvalues --  -88.86694 -77.14412 -19.13248 -19.13238 -19.12562
 Alpha  occ. eigenvalues --  -19.11383 -19.11024 -14.33138 -10.22799 -10.22558
 Alpha  occ. eigenvalues --  -10.21708  -7.92709  -6.61866  -5.89071  -5.88772
 Alpha  occ. eigenvalues --   -5.88207  -4.78200  -4.77972  -4.77858  -2.12952
 Alpha  occ. eigenvalues --   -2.12614  -2.12590  -2.11651  -2.11651  -1.00281
 Alpha  occ. eigenvalues --   -0.99507  -0.99064  -0.98433  -0.93741  -0.90400
 Alpha  occ. eigenvalues --   -0.80652  -0.71353  -0.68662  -0.64153  -0.57704
 Alpha  occ. eigenvalues --   -0.54677  -0.51075  -0.50550  -0.50309  -0.48385
 Alpha  occ. eigenvalues --   -0.47060  -0.44469  -0.42203  -0.40794  -0.40053
 Alpha  occ. eigenvalues --   -0.39212  -0.39179  -0.38189  -0.37412  -0.36332
 Alpha  occ. eigenvalues --   -0.35112  -0.31813  -0.30815  -0.30454  -0.30296
 Alpha  occ. eigenvalues --   -0.30168  -0.29440  -0.29113  -0.27792  -0.26632
 Alpha  occ. eigenvalues --   -0.25212  -0.24943  -0.22947
 Alpha virt. eigenvalues --   -0.04704  -0.00440   0.00088   0.01096   0.01475
 Alpha virt. eigenvalues --    0.02393   0.03337   0.03657   0.04069   0.05440
 Alpha virt. eigenvalues --    0.05744   0.06035   0.07836   0.07922   0.09086

 Mulliken atomic charges:
              1
     1  P    1.289248
     2  O   -0.993737
     3  O   -1.036884
     4  N   -0.557674
     5  H    0.252160
     6  S   -0.158606
     7  C   -0.098971
     8  H    0.234623
     9  H    0.189815
    10  C   -0.111701
    11  H    0.175409
    12  C   -0.643740
    13  H    0.242320
    14  H    0.230028
    15  I    0.001417
    16  O   -0.603554
    17  H    0.299911
    18  H    0.303306
    19  O   -0.635652
    20  H    0.349227
    21  H    0.283461
    22  O   -0.656133
    23  H    0.364291
    24  H    0.281434
 Sum of Mulliken charges=  -1.00000

 Dipole moment (field-independent basis, Debye):
    X=   -15.0371    Y=     3.3875    Z=     3.0261  Tot=    15.7082
 Quadrupole moment (field-independent basis, Debye-Ang):
   XX=  -194.4872   YY=  -139.7464   ZZ=  -113.6133
   XY=     1.2034   XZ=     6.4692   YZ=    -3.5280

 Normal termination of Gaussian 03 at Mon Jul 28 18:33:49 2008.
