 Gaussian 03, Revision D.01,

 ------------------------------------------------------------------
 #p opt=gdiis b3lyp/aug-cc-pVDZ scf=tight integral=(grid=ultrafine)
 ------------------------------------------------------------------

 ---------------------
 Molecule 3, geometry.
 ---------------------
 Symbolic Z-matrix:
 Charge = -1 Multiplicity = 1

 SCF Done:  E(RB+HF-LYP) =  -1332.19051238     A.U. after   14 cycles
 SCF Done:  E(RB+HF-LYP) =  -1332.19476989     A.U. after   12 cycles
 SCF Done:  E(RB+HF-LYP) =  -1332.19492325     A.U. after   12 cycles
 SCF Done:  E(RB+HF-LYP) =  -1332.19499083     A.U. after   11 cycles
 SCF Done:  E(RB+HF-LYP) =  -1332.19509771     A.U. after   10 cycles
 SCF Done:  E(RB+HF-LYP) =  -1332.19511241     A.U. after   10 cycles
 SCF Done:  E(RB+HF-LYP) =  -1332.19512735     A.U. after   11 cycles
 SCF Done:  E(RB+HF-LYP) =  -1332.19513042     A.U. after    9 cycles
 SCF Done:  E(RB+HF-LYP) =  -1332.19513331     A.U. after    9 cycles
 SCF Done:  E(RB+HF-LYP) =  -1332.19513760     A.U. after    9 cycles
 SCF Done:  E(RB+HF-LYP) =  -1332.19515233     A.U. after    9 cycles
 SCF Done:  E(RB+HF-LYP) =  -1332.19515338     A.U. after    8 cycles
 SCF Done:  E(RB+HF-LYP) =  -1332.19515473     A.U. after    8 cycles
 SCF Done:  E(RB+HF-LYP) =  -1332.19515630     A.U. after    9 cycles
 SCF Done:  E(RB+HF-LYP) =  -1332.19515740     A.U. after    9 cycles
 SCF Done:  E(RB+HF-LYP) =  -1332.19515846     A.U. after    9 cycles
 SCF Done:  E(RB+HF-LYP) =  -1332.19515878     A.U. after    8 cycles
 SCF Done:  E(RB+HF-LYP) =  -1332.19515894     A.U. after    8 cycles
 SCF Done:  E(RB+HF-LYP) =  -1332.19515908     A.U. after    7 cycles
 Optimization completed.
    -- Stationary point found.
 Normal termination of Gaussian 03 at Sat Aug  2 16:34:28 2008.
 Gaussian 03:  IA64L-G03RevD.01 13-Oct-2005

 ----------------------------------------------------------------------
 #p nmr=giao b3lyp/Gen scf=tight integral=(grid=ultrafine) guess=read s
 crf=(pcm,solvent=water,read) geom=checkpoint
 ----------------------------------------------------------------------

 Molecule 3, NMR.
 ----------------
 Redundant internal coordinates taken from checkpoint file:
 molecule_3.chk
 Charge = -1 Multiplicity = 1

                         Standard orientation:
 ---------------------------------------------------------------------
 Center     Atomic     Atomic              Coordinates (Angstroms)
 Number     Number      Type              X           Y           Z
 ---------------------------------------------------------------------
    1          6             0       -1.420562    0.004466    0.008307
    2          1             0       -1.435322    0.187135   -1.071994
    3          1             0       -1.337180    0.980937    0.500924
    4          7             0       -0.188039   -0.748105    0.305204
    5          1             0       -0.105839   -0.979209    1.304048
    6         15             0        1.567778    0.184776   -0.007333
    7          8             0        2.436376   -1.051183    0.333737
    8          8             0        1.436327    1.271417    1.087038
    9         16             0        1.439331    0.751960   -1.937818
   10          8             0        1.149186   -0.780454    3.020043
   11          1             0        1.810200   -1.237208    2.470807
   12          1             0        1.242117    0.128878    2.662663
   13          8             0        1.202073   -2.825018   -1.370931
   14          1             0        1.818096   -2.353766   -0.755727
   15          1             0        1.221409   -2.234104   -2.138455
   16          8             0       -0.069072    3.417884    0.101015
   17          1             0        0.491771    2.757961    0.567320
   18          1             0        0.109680    3.183685   -0.820754
   19          1             0       -0.107405   -1.615163   -0.241009
   20          6             0       -2.687587   -0.738498    0.462793
   21          1             0       -2.606902   -0.934832    1.545685
   22          1             0       -2.754996   -1.714627   -0.041456
   23          6             0       -3.931483    0.062980    0.197566
   24          1             0       -3.962354    1.058110    0.653873
   25          6             0       -4.966639   -0.336163   -0.549324
   26          1             0       -4.978006   -1.314940   -1.034448
   27          1             0       -5.836450    0.302988   -0.706071
 ---------------------------------------------------------------------

 SCF Done:  E(RB+HF-LYP) =  -1332.35508398     A.U. after   12 cycles

  1  C    Isotropic =   146.6664   Anisotropy =    37.2972

  2  H    Isotropic =    28.7033   Anisotropy =     5.0348

  3  H    Isotropic =    28.3829   Anisotropy =     5.7847

  4  N    Isotropic =   163.4359   Anisotropy =    68.8235

  5  H    Isotropic =    26.1222   Anisotropy =    13.8598

  6  P    Isotropic =   179.7477   Anisotropy =   127.4123

  7  O    Isotropic =   108.3193   Anisotropy =   118.8945

  8  O    Isotropic =   116.0611   Anisotropy =   133.3434

  9  S    Isotropic =   616.7079   Anisotropy =   363.2570

 10  O    Isotropic =   300.4120   Anisotropy =    32.8956

 11  H    Isotropic =    29.3880   Anisotropy =    16.5831

 12  H    Isotropic =    27.6637   Anisotropy =    22.3795

 13  O    Isotropic =   305.0832   Anisotropy =    33.2498

 14  H    Isotropic =    25.7143   Anisotropy =    27.0680

 15  H    Isotropic =    30.1749   Anisotropy =    15.0623

 16  O    Isotropic =   315.3622   Anisotropy =    36.9445

 17  H    Isotropic =    26.5659   Anisotropy =    28.2938

 18  H    Isotropic =    30.6722   Anisotropy =    16.0777

 19  H    Isotropic =    25.8695   Anisotropy =    14.9362

 20  C    Isotropic =   152.0155   Anisotropy =    31.7408

 21  H    Isotropic =    29.0958   Anisotropy =     5.3226

 22  H    Isotropic =    29.2620   Anisotropy =     5.4530

 23  C    Isotropic =    52.5351   Anisotropy =   166.3959

 24  H    Isotropic =    25.3145   Anisotropy =     5.9052

 25  C    Isotropic =    77.4313   Anisotropy =   128.1736

 26  H    Isotropic =    26.2333   Anisotropy =     6.0604

 27  H    Isotropic =    26.3499   Anisotropy =     5.9284

 The electronic state is 1-A.
 Alpha  occ. eigenvalues --  -88.82373 -77.14302 -19.13969 -19.13818 -19.12634
 Alpha  occ. eigenvalues --  -19.10626 -19.10356 -14.38221 -10.21994 -10.19354
 Alpha  occ. eigenvalues --  -10.18951 -10.18083  -7.88436  -6.61645  -5.84885
 Alpha  occ. eigenvalues --   -5.84213  -5.84141  -4.78095  -4.77657  -4.77618
 Alpha  occ. eigenvalues --   -1.00771  -1.00168  -0.99034  -0.97953  -0.93294
 Alpha  occ. eigenvalues --   -0.92662  -0.80092  -0.72544  -0.68384  -0.63830
 Alpha  occ. eigenvalues --   -0.56058  -0.54680  -0.51814  -0.50824  -0.50777
 Alpha  occ. eigenvalues --   -0.49762  -0.47555  -0.47031  -0.44740  -0.42526
 Alpha  occ. eigenvalues --   -0.41008  -0.40430  -0.39609  -0.38950  -0.38458
 Alpha  occ. eigenvalues --   -0.37188  -0.36399  -0.35379  -0.34650  -0.31512
 Alpha  occ. eigenvalues --   -0.30909  -0.30405  -0.29695  -0.29366  -0.28248
 Alpha  occ. eigenvalues --   -0.27965  -0.26329  -0.23011  -0.22000
 Alpha virt. eigenvalues --   -0.01100  -0.00521   0.01096   0.01315   0.01565
 Alpha virt. eigenvalues --    0.02877   0.03031   0.03630   0.03905   0.04497
 Alpha virt. eigenvalues --    0.05134   0.05986   0.06316   0.06937   0.07303

 Mulliken atomic charges:
              1
     1  C   -0.234765
     2  H    0.210583
     3  H    0.197694
     4  N   -0.585870
     5  H    0.286232
     6  P    1.238438
     7  O   -0.978311
     8  O   -0.950838
     9  S   -0.633844
    10  O   -0.600912
    11  H    0.300673
    12  H    0.311336
    13  O   -0.616306
    14  H    0.341613
    15  H    0.284287
    16  O   -0.621854
    17  H    0.339159
    18  H    0.272002
    19  H    0.289690
    20  C   -0.324558
    21  H    0.189226
    22  H    0.173400
    23  C    0.173505
    24  H    0.153373
    25  C   -0.487789
    26  H    0.133745
    27  H    0.140090
 Sum of Mulliken charges=  -1.00000

 Dipole moment (field-independent basis, Debye):
    X=   -10.1920    Y=    -3.8186    Z=    -0.6108  Tot=    10.9010
 Quadrupole moment (field-independent basis, Debye-Ang):
   XX=  -113.1866   YY=  -126.8270   ZZ=  -113.5436
   XY=     3.7268   XZ=     1.7587   YZ=    -1.6219

 Normal termination of Gaussian 03 at Sat Aug  2 16:47:18 2008.
