 Gaussian 03, Revision D.01,

 ------------------------------------------------------------------
 #p opt=gdiis b3lyp/aug-cc-pVDZ scf=tight integral=(grid=ultrafine)
 ------------------------------------------------------------------

 ----------------------
 Molecule 12, geometry.
 ----------------------
 Symbolic Z-matrix:
 Charge = -1 Multiplicity = 1

 SCF Done:  E(RB+HF-LYP) =  -1368.12048529     A.U. after   13 cycles
 SCF Done:  E(RB+HF-LYP) =  -1368.12377925     A.U. after   11 cycles
 SCF Done:  E(RB+HF-LYP) =  -1368.12391104     A.U. after   10 cycles
 SCF Done:  E(RB+HF-LYP) =  -1368.12393865     A.U. after   10 cycles
 SCF Done:  E(RB+HF-LYP) =  -1368.12395240     A.U. after   10 cycles
 SCF Done:  E(RB+HF-LYP) =  -1368.12396657     A.U. after    9 cycles
 SCF Done:  E(RB+HF-LYP) =  -1368.12399354     A.U. after   10 cycles
 SCF Done:  E(RB+HF-LYP) =  -1368.12404190     A.U. after   10 cycles
 SCF Done:  E(RB+HF-LYP) =  -1368.12415284     A.U. after   11 cycles
 SCF Done:  E(RB+HF-LYP) =  -1368.12426086     A.U. after   12 cycles
 SCF Done:  E(RB+HF-LYP) =  -1368.12659704     A.U. after   10 cycles
 SCF Done:  E(RB+HF-LYP) =  -1368.12659715     A.U. after    8 cycles
 SCF Done:  E(RB+HF-LYP) =  -1368.12659725     A.U. after    8 cycles
 SCF Done:  E(RB+HF-LYP) =  -1368.12659733     A.U. after    8 cycles
 SCF Done:  E(RB+HF-LYP) =  -1368.12659743     A.U. after    8 cycles
 SCF Done:  E(RB+HF-LYP) =  -1368.12659754     A.U. after    8 cycles
 SCF Done:  E(RB+HF-LYP) =  -1368.12659758     A.U. after    8 cycles
 SCF Done:  E(RB+HF-LYP) =  -1368.12659761     A.U. after    8 cycles
 SCF Done:  E(RB+HF-LYP) =  -1368.12659762     A.U. after    8 cycles
 Optimization completed.
    -- Stationary point found.
 Normal termination of Gaussian 03 at Sun Aug  3 15:32:57 2008.
 Gaussian 03:  IA64L-G03RevD.01 13-Oct-2005

 ----------------------------------------------------------------------
 #p nmr=giao b3lyp/Gen scf=tight integral=(grid=ultrafine) scrf=(pcm,so
 lvent=water,read) guess=read geom=checkpoint
 ----------------------------------------------------------------------

 Molecule 12, NMR.
 -----------------
 Redundant internal coordinates taken from checkpoint file:
 molecule_12.chk
 Charge = -1 Multiplicity = 1

                         Standard orientation:
 ---------------------------------------------------------------------
 Center     Atomic     Atomic              Coordinates (Angstroms)
 Number     Number      Type              X           Y           Z
 ---------------------------------------------------------------------
    1         15             0       -0.857909   -0.103371   -0.191375
    2          8             0       -2.083226   -0.978513    0.119056
    3          8             0       -1.002667    1.344558   -0.676497
    4          7             0        0.166360   -0.958575   -1.268388
    5          1             0        0.151045   -1.951951   -1.040437
    6         16             0        0.349405   -0.094797    1.661445
    7          6             0        1.513046   -0.431855   -1.489614
    8          1             0        2.001456   -1.019331   -2.280336
    9          1             0        1.426538    0.601449   -1.851251
   10          6             0        1.933055    0.471274    0.878567
   11          1             0        2.672484    0.475341    1.694193
   12          8             0       -4.083697    1.099850   -0.515348
   13          1             0       -3.275129    1.596678   -0.716141
   14          1             0       -3.699863    0.246437   -0.244575
   15          8             0       -1.097494   -3.542503    0.413816
   16          1             0       -1.581636   -2.687303    0.310689
   17          1             0       -0.596763   -3.405063    1.226792
   18          8             0        0.241354    3.591458    0.296545
   19          1             0       -0.212055    2.806604   -0.095029
   20          1             0       -0.066796    3.583411    1.209661
   21          6             0        2.417569   -0.448824   -0.246843
   22          1             0        2.479022   -1.482293    0.138225
   23          1             0        1.813251    1.499917    0.514054
   24          8             0        3.717614   -0.032040   -0.713340
   25          1             0        4.285004    0.107390    0.053864
 ---------------------------------------------------------------------

 SCF Done:  E(RB+HF-LYP) =  -1368.29908562     A.U. after   12 cycles

  1  P    Isotropic =   250.2240   Anisotropy =   204.5635

  2  O    Isotropic =   159.8495   Anisotropy =    80.1911

  3  O    Isotropic =   156.5831   Anisotropy =    87.8625

  4  N    Isotropic =   168.6654   Anisotropy =    80.2719

  5  H    Isotropic =    28.3068   Anisotropy =     9.3328

  6  S    Isotropic =   482.0879   Anisotropy =   261.9532

  7  C    Isotropic =   139.3524   Anisotropy =    39.3773

  8  H    Isotropic =    28.2473   Anisotropy =     7.7318

  9  H    Isotropic =    28.2668   Anisotropy =     3.6406

 10  C    Isotropic =   148.2103   Anisotropy =    28.2409

 11  H    Isotropic =    29.0396   Anisotropy =     8.6390

 12  O    Isotropic =   315.0529   Anisotropy =    47.8346

 13  H    Isotropic =    30.1965   Anisotropy =    19.8814

 14  H    Isotropic =    29.1400   Anisotropy =    23.8645

 15  O    Isotropic =   319.8146   Anisotropy =    53.8607

 16  H    Isotropic =    26.2755   Anisotropy =    30.9780

 17  H    Isotropic =    30.8510   Anisotropy =    15.6350

 18  O    Isotropic =   324.2539   Anisotropy =    61.6105

 19  H    Isotropic =    25.9098   Anisotropy =    32.4412

 20  H    Isotropic =    30.8413   Anisotropy =    16.3569

 21  C    Isotropic =   118.6364   Anisotropy =    55.9292

 22  H    Isotropic =    27.2500   Anisotropy =     3.1850

 23  H    Isotropic =    28.0500   Anisotropy =     5.8989

 24  O    Isotropic =   277.9976   Anisotropy =    49.4572

 25  H    Isotropic =    30.0489   Anisotropy =    17.5914

 The electronic state is 1-A.
 Alpha  occ. eigenvalues --  -88.86488 -77.13989 -19.14872 -19.13209 -19.13207
 Alpha  occ. eigenvalues --  -19.12535 -19.10866 -19.10473 -14.32438 -10.23072
 Alpha  occ. eigenvalues --  -10.20533 -10.20481  -7.92485  -6.61382  -5.88854
 Alpha  occ. eigenvalues --   -5.88556  -5.87973  -4.77686  -4.77517  -4.77397
 Alpha  occ. eigenvalues --   -1.02269  -1.00007  -0.99452  -0.98932  -0.98208
 Alpha  occ. eigenvalues --   -0.93303  -0.89020  -0.78040  -0.71627  -0.63746
 Alpha  occ. eigenvalues --   -0.59215  -0.54742  -0.51207  -0.50720  -0.50377
 Alpha  occ. eigenvalues --   -0.50278  -0.46216  -0.46079  -0.43345  -0.42673
 Alpha  occ. eigenvalues --   -0.40823  -0.39496  -0.39004  -0.38604  -0.37499
 Alpha  occ. eigenvalues --   -0.36957  -0.35892  -0.35659  -0.33233  -0.31235
 Alpha  occ. eigenvalues --   -0.30261  -0.30179  -0.29764  -0.29431  -0.28760
 Alpha  occ. eigenvalues --   -0.28155  -0.27492  -0.25066  -0.22355
 Alpha virt. eigenvalues --   -0.00567  -0.00015   0.01070   0.02047   0.02419
 Alpha virt. eigenvalues --    0.02973   0.04216   0.04261   0.05251   0.05437
 Alpha virt. eigenvalues --    0.07014   0.07834   0.08044   0.08570   0.08882

 Mulliken atomic charges:
              1
     1  P    1.333549
     2  O   -1.002870
     3  O   -1.051819
     4  N   -0.517615
     5  H    0.245019
     6  S   -0.147692
     7  C   -0.203262
     8  H    0.207881
     9  H    0.205485
    10  C   -0.628995
    11  H    0.219908
    12  O   -0.605415
    13  H    0.295937
    14  H    0.308674
    15  O   -0.635332
    16  H    0.349189
    17  H    0.283007
    18  O   -0.652906
    19  H    0.368998
    20  H    0.280402
    21  C    0.472541
    22  H    0.194089
    23  H    0.173718
    24  O   -0.785156
    25  H    0.292665
 Sum of Mulliken charges=  -1.00000

 Dipole moment (field-independent basis, Debye):
    X=    11.0766    Y=    -2.5107    Z=     3.8486  Tot=    11.9919
 Quadrupole moment (field-independent basis, Debye-Ang):
   XX=  -123.8226   YY=  -126.4651   ZZ=   -95.7924
   XY=    -4.6635   XZ=     3.5947   YZ=     4.2368

 Normal termination of Gaussian 03 at Sun Aug  3 15:43:56 2008.
