 Gaussian 03, Revision D.01,

 ------------------------------------------------------------------
 #p opt=gdiis b3lyp/aug-cc-pVDZ scf=tight integral=(grid=ultrafine)
 ------------------------------------------------------------------

 ----------------------
 Molecule 15, geometry.
 ----------------------
 Symbolic Z-matrix:
 Charge =  0 Multiplicity = 1

 SCF Done:  E(RB+HF-LYP) =  -1368.63106519     A.U. after   13 cycles
 SCF Done:  E(RB+HF-LYP) =  -1368.63360296     A.U. after   11 cycles
 SCF Done:  E(RB+HF-LYP) =  -1368.63375856     A.U. after   10 cycles
 SCF Done:  E(RB+HF-LYP) =  -1368.63379840     A.U. after   10 cycles
 SCF Done:  E(RB+HF-LYP) =  -1368.63380738     A.U. after    9 cycles
 SCF Done:  E(RB+HF-LYP) =  -1368.63381623     A.U. after    9 cycles
 SCF Done:  E(RB+HF-LYP) =  -1368.63382420     A.U. after    9 cycles
 SCF Done:  E(RB+HF-LYP) =  -1368.63383395     A.U. after    9 cycles
 SCF Done:  E(RB+HF-LYP) =  -1368.63384136     A.U. after   10 cycles
 SCF Done:  E(RB+HF-LYP) =  -1368.63384732     A.U. after    9 cycles
 SCF Done:  E(RB+HF-LYP) =  -1368.63524521     A.U. after   10 cycles
 SCF Done:  E(RB+HF-LYP) =  -1368.63524680     A.U. after    9 cycles
 SCF Done:  E(RB+HF-LYP) =  -1368.63524714     A.U. after    8 cycles
 SCF Done:  E(RB+HF-LYP) =  -1368.63524751     A.U. after    8 cycles
 SCF Done:  E(RB+HF-LYP) =  -1368.63524762     A.U. after    8 cycles
 SCF Done:  E(RB+HF-LYP) =  -1368.63524768     A.U. after    8 cycles
 SCF Done:  E(RB+HF-LYP) =  -1368.63524775     A.U. after    8 cycles
 SCF Done:  E(RB+HF-LYP) =  -1368.63524778     A.U. after    7 cycles
 SCF Done:  E(RB+HF-LYP) =  -1368.63524780     A.U. after    8 cycles
 Optimization completed.
    -- Stationary point found.
 Normal termination of Gaussian 03 at Sun Aug  3 18:07:32 2008.
 Gaussian 03:  IA64L-G03RevD.01 13-Oct-2005

 ----------------------------------------------------------------------
 #p nmr=giao b3lyp/Gen scf=tight integral=(grid=ultrafine) scrf=(pcm,so
 lvent=water,read) guess=read geom=checkpoint
 ----------------------------------------------------------------------

 Molecule 15, NMR.
 -----------------
 Redundant internal coordinates taken from checkpoint file:
 molecule_15.chk
 Charge =  0 Multiplicity = 1

                         Standard orientation:
 ---------------------------------------------------------------------
 Center     Atomic     Atomic              Coordinates (Angstroms)
 Number     Number      Type              X           Y           Z
 ---------------------------------------------------------------------
    1         15             0        0.340588    0.838174   -0.775362
    2          8             0        0.722439   -0.379996   -1.604707
    3          8             0        1.134017    2.130232   -0.677877
    4          7             0        0.328400    0.170909    1.009904
    5          1             0        1.128743   -0.496694    1.095500
    6         16             0       -1.736112    1.257306   -0.920790
    7          6             0       -0.926526   -0.506378    1.470942
    8          1             0       -0.658778   -1.177494    2.295730
    9          1             0       -1.615098    0.257433    1.847381
   10          6             0       -2.368884   -0.472666   -0.669037
   11          1             0       -2.409780   -0.983607   -1.635253
   12          8             0        1.232737    2.671518    1.983043
   13          1             0        1.295251    2.761819    1.003681
   14          1             0        0.804135    3.474351    2.299404
   15          8             0        2.310692   -1.796463    1.271747
   16          1             0        3.083151   -1.723279    1.842837
   17          1             0        2.655713   -1.954078    0.355393
   18          1             0        0.541530    0.990437    1.609053
   19          8             0        2.837230   -2.023295   -1.352653
   20          1             0        2.109820   -1.395120   -1.585220
   21          1             0        3.617849   -1.704122   -1.818658
   22          6             0       -1.589749   -1.322979    0.349387
   23          1             0       -0.813654   -1.892766   -0.178894
   24          1             0       -3.390210   -0.338409   -0.291839
   25          8             0       -2.556879   -2.212419    0.919972
   26          1             0       -2.109426   -3.008821    1.230674
 ---------------------------------------------------------------------

 SCF Done:  E(RB+HF-LYP) =  -1368.75044852     A.U. after   12 cycles

  1  P    Isotropic =   251.1842   Anisotropy =   267.3106

  2  O    Isotropic =   118.8522   Anisotropy =    97.9408

  3  O    Isotropic =   141.6789   Anisotropy =    93.0531

  4  N    Isotropic =   172.2136   Anisotropy =    63.5515

  5  H    Isotropic =    22.0146   Anisotropy =    25.2768

  6  S    Isotropic =   513.3287   Anisotropy =   287.9605

  7  C    Isotropic =   141.8877   Anisotropy =    38.2076

  8  H    Isotropic =    28.4170   Anisotropy =     6.5644

  9  H    Isotropic =    28.0804   Anisotropy =     4.3554

 10  C    Isotropic =   150.1632   Anisotropy =    29.7925

 11  H    Isotropic =    27.9826   Anisotropy =     8.6156

 12  O    Isotropic =   314.3944   Anisotropy =    55.6277

 13  H    Isotropic =    26.4265   Anisotropy =    27.0304

 14  H    Isotropic =    29.9565   Anisotropy =    20.3718

 15  O    Isotropic =   308.4621   Anisotropy =    47.3792

 16  H    Isotropic =    29.9154   Anisotropy =    19.9814

 17  H    Isotropic =    24.4859   Anisotropy =    32.0815

 18  H    Isotropic =    23.6541   Anisotropy =    22.1173

 19  O    Isotropic =   309.9679   Anisotropy =    51.5141

 20  H    Isotropic =    25.4907   Anisotropy =    32.5565

 21  H    Isotropic =    29.9801   Anisotropy =    19.6500

 22  C    Isotropic =   125.9139   Anisotropy =    54.7786

 23  H    Isotropic =    26.7202   Anisotropy =     5.4840

 24  H    Isotropic =    29.0606   Anisotropy =     8.4872

 25  O    Isotropic =   288.2987   Anisotropy =    77.6393

 26  H    Isotropic =    29.3438   Anisotropy =    20.0939

 The electronic state is 1-A.
 Alpha  occ. eigenvalues --  -88.89888 -77.17319 -19.16047 -19.15197 -19.15027
 Alpha  occ. eigenvalues --  -19.14913 -19.13333 -19.13153 -14.40458 -10.25581
 Alpha  occ. eigenvalues --  -10.23606 -10.22590  -7.95920  -6.64735  -5.92289
 Alpha  occ. eigenvalues --   -5.91993  -5.91385  -4.81114  -4.80880  -4.80643
 Alpha  occ. eigenvalues --   -1.03863  -1.02618  -1.01908  -1.01047  -1.00493
 Alpha  occ. eigenvalues --   -0.96220  -0.95251  -0.81262  -0.74523  -0.68263
 Alpha  occ. eigenvalues --   -0.61589  -0.57182  -0.55644  -0.54298  -0.54014
 Alpha  occ. eigenvalues --   -0.52948  -0.51946  -0.49596  -0.48710  -0.45052
 Alpha  occ. eigenvalues --   -0.43783  -0.42771  -0.41462  -0.40754  -0.40395
 Alpha  occ. eigenvalues --   -0.39403  -0.39155  -0.38321  -0.36782  -0.34810
 Alpha  occ. eigenvalues --   -0.33661  -0.32709  -0.32355  -0.32132  -0.31486
 Alpha  occ. eigenvalues --   -0.30903  -0.30094  -0.29305  -0.26218
 Alpha virt. eigenvalues --   -0.01713  -0.01059   0.00186   0.00941   0.01411
 Alpha virt. eigenvalues --    0.02862   0.03272   0.03680   0.04236   0.04438
 Alpha virt. eigenvalues --    0.05248   0.05671   0.06900   0.07626   0.07997

 Mulliken atomic charges:
              1
     1  P    1.397869
     2  O   -0.936291
     3  O   -0.895993
     4  N   -0.555235
     5  H    0.366791
     6  S   -0.015115
     7  C   -0.178142
     8  H    0.218712
     9  H    0.220088
    10  C   -0.588406
    11  H    0.194097
    12  O   -0.635696
    13  H    0.341809
    14  H    0.301383
    15  O   -0.667583
    16  H    0.298844
    17  H    0.361117
    18  H    0.331082
    19  O   -0.661942
    20  H    0.378040
    21  H    0.297789
    22  C    0.484522
    23  H    0.195038
    24  H    0.226473
    25  O   -0.781188
    26  H    0.301936
 Sum of Mulliken charges=   0.00000

 Dipole moment (field-independent basis, Debye):
    X=    -0.5547    Y=    -2.1785    Z=     5.3613  Tot=     5.8135
 Quadrupole moment (field-independent basis, Debye-Ang):
   XX=   -82.2018   YY=   -89.8491   ZZ=   -87.0615
   XY=    -4.8549   XZ=     0.9725   YZ=     2.0177

 Normal termination of Gaussian 03 at Sun Aug  3 18:22:59 2008.
