 Gaussian 03, Revision D.01,

 ----------------------------------------------------------------------
 #p opt=gdiis b3lyp/cc-pVDZ scf=(tight,novaracc,noincfock) integral=(gr
 id=ultrafine) guess=read geom=checkpoint scrf=(pcm,solvent=water,read)
 ----------------------------------------------------------------------

 Phosphamine form A, geometry.
 -----------------------------
 Redundant internal coordinates taken from checkpoint file:
 phosphamine_a.chk
 Charge = -2 Multiplicity = 1

 SCF Done:  E(RB+HF-LYP) =  -740.007419818     A.U. after   12 cycles
 SCF Done:  E(RB+HF-LYP) =  -740.009344718     A.U. after   13 cycles
 SCF Done:  E(RB+HF-LYP) =  -740.011923621     A.U. after   13 cycles
 SCF Done:  E(RB+HF-LYP) =  -740.012810132     A.U. after   11 cycles
 SCF Done:  E(RB+HF-LYP) =  -740.013073952     A.U. after   11 cycles
 SCF Done:  E(RB+HF-LYP) =  -740.013043722     A.U. after   10 cycles
 SCF Done:  E(RB+HF-LYP) =  -740.013013104     A.U. after   10 cycles
 SCF Done:  E(RB+HF-LYP) =  -740.013027985     A.U. after    9 cycles
 SCF Done:  E(RB+HF-LYP) =  -740.013061767     A.U. after    9 cycles
 SCF Done:  E(RB+HF-LYP) =  -740.013030037     A.U. after    7 cycles
 Optimization completed.
    -- Stationary point found.
 Normal termination of Gaussian 03 at Wed Jul  9 23:35:50 2008.

 ----------------------------------------------------------------------
 #p opt=gdiis b3lyp/cc-pVTZ scf=(tight,novaracc,noincfock) integral=(gr
 id=ultrafine) guess=read geom=checkpoint scrf=(pcm,solvent=water,read)
 ----------------------------------------------------------------------

 Phosphamine form A, geometry.
 -----------------------------
 Redundant internal coordinates taken from checkpoint file:
 phosphamine_a.chk
 Charge = -2 Multiplicity = 1

 SCF Done:  E(RB+HF-LYP) =  -740.248045755     A.U. after   10 cycles
 SCF Done:  E(RB+HF-LYP) =  -740.248039960     A.U. after   10 cycles
 SCF Done:  E(RB+HF-LYP) =  -740.247976280     A.U. after   10 cycles
 SCF Done:  E(RB+HF-LYP) =  -740.248041356     A.U. after   10 cycles
 SCF Done:  E(RB+HF-LYP) =  -740.248049975     A.U. after   10 cycles
 SCF Done:  E(RB+HF-LYP) =  -740.248043973     A.U. after   10 cycles
 SCF Done:  E(RB+HF-LYP) =  -740.248044193     A.U. after    8 cycles
 SCF Done:  E(RB+HF-LYP) =  -740.248048023     A.U. after    8 cycles
 SCF Done:  E(RB+HF-LYP) =  -740.248046653     A.U. after    8 cycles
 Optimization completed.
    -- Stationary point found.
 Normal termination of Gaussian 03 at Thu Jul 10 04:47:38 2008.
 Gaussian 03:  IA64L-G03RevD.01 13-Oct-2005

 ----------------------------------------------------------------------
 #p nmr=giao b3lyp/cc-pVTZ guess=read geom=checkpoint integral=(grid=ul
 trafine) scrf=(pcm,solvent=water,read) scf=(tight,novaracc,noincfock)
 ----------------------------------------------------------------------

 Phosphamine form A, chemical shifts.
 ------------------------------------
 Redundant internal coordinates taken from checkpoint file:
 phosphamine_a.chk
 Charge = -2 Multiplicity = 1

                         Standard orientation:
 ---------------------------------------------------------------------
 Center     Atomic     Atomic              Coordinates (Angstroms)
 Number     Number      Type              X           Y           Z
 ---------------------------------------------------------------------
    1          6             0       -1.345320    0.248442    0.375513
    2          1             0       -1.100910    0.246004    1.465123
    3          1             0       -1.412981    1.321795    0.066822
    4          6             0       -2.677959   -0.413691    0.190119
    5          1             0       -2.711980   -1.468380    0.460279
    6          6             0       -3.774869    0.172143   -0.280246
    7          1             0       -3.774829    1.216299   -0.574813
    8          1             0       -4.710039   -0.364637   -0.384489
    9          7             0       -0.284935   -0.488423   -0.312625
   10          1             0       -0.454003   -0.457825   -1.319132
   11         15             0        1.381812    0.011749   -0.017856
   12          8             0        1.461926    1.532259   -0.250439
   13          8             0        2.157636   -0.806724   -1.060877
   14          8             0        1.658063   -0.387023    1.440081
 ---------------------------------------------------------------------

 SCF Done:  E(RB+HF-LYP) =  -740.248046653     A.U. after    1 cycles

  1  C    Isotropic =   128.6873   Anisotropy =    30.4887

  2  H    Isotropic =    27.4840   Anisotropy =     3.9223

  3  H    Isotropic =    27.5312   Anisotropy =     6.6717

  4  C    Isotropic =    28.3077   Anisotropy =   174.9888

  5  H    Isotropic =    25.2195   Anisotropy =     4.9545

  6  C    Isotropic =    71.9764   Anisotropy =   128.3942

  7  H    Isotropic =    26.5389   Anisotropy =     5.4904

  8  H    Isotropic =    26.8019   Anisotropy =     5.7617

  9  N    Isotropic =   174.9557   Anisotropy =    86.2473

 10  H    Isotropic =    30.7831   Anisotropy =     7.6966

 11  P    Isotropic =   296.2690   Anisotropy =    76.9643

 12  O    Isotropic =   206.5633   Anisotropy =   110.2739

 13  O    Isotropic =   193.3164   Anisotropy =   116.7675

 14  O    Isotropic =   219.9474   Anisotropy =   117.4541

 The electronic state is 1-A.
 Alpha  occ. eigenvalues --  -77.09174 -18.99324 -18.99285 -18.99163 -14.25151
 Alpha  occ. eigenvalues --  -10.16955 -10.16239 -10.15289  -6.53710  -4.70147
 Alpha  occ. eigenvalues --   -4.69908  -4.69898  -0.92375  -0.83979  -0.83716
 Alpha  occ. eigenvalues --   -0.83394  -0.75305  -0.63276  -0.53845  -0.47152
 Alpha  occ. eigenvalues --   -0.45784  -0.41246  -0.39718  -0.38081  -0.34549
 Alpha  occ. eigenvalues --   -0.33034  -0.31889  -0.31701  -0.25846  -0.24085
 Alpha  occ. eigenvalues --   -0.23973  -0.23878  -0.21863  -0.20751  -0.18390
 Alpha  occ. eigenvalues --   -0.17451
 Alpha virt. eigenvalues --    0.01730   0.06736   0.08460   0.09497   0.10699
 Alpha virt. eigenvalues --    0.13811   0.15035   0.17254   0.19788   0.21393
 Alpha virt. eigenvalues --    0.22730   0.24135   0.25134   0.28712   0.29900

 Mulliken atomic charges:
              1
     1  C   -0.032350
     2  H    0.083458
     3  H    0.049079
     4  C   -0.099763
     5  H    0.109229
     6  C   -0.341972
     7  H    0.114606
     8  H    0.117237
     9  N   -0.383035
    10  H    0.105155
    11  P    0.733656
    12  O   -0.821211
    13  O   -0.819310
    14  O   -0.814778
 Sum of Mulliken charges=  -2.00000

 Dipole moment (field-independent basis, Debye):
    X=   -15.9046    Y=    -0.0770    Z=    -0.8036  Tot=    15.9251
 Quadrupole moment (field-independent basis, Debye-Ang):
   XX=   -94.1429   YY=   -72.9984   ZZ=   -71.3970
   XY=     0.5983   XZ=     1.6704   YZ=    -0.1366

 Normal termination of Gaussian 03 at Thu Jul 10 05:06:46 2008.
