 Gaussian 03, Revision D.01,

 ----------------------------------------------------------------------
 #p opt=gdiis b3lyp/cc-pVDZ scf=(tight,novaracc,noincfock) integral=(gr
 id=ultrafine) guess=read geom=checkpoint scrf=(pcm,solvent=water,read)
 ----------------------------------------------------------------------

 Phosphamine form B, geometry.
 -----------------------------
 Redundant internal coordinates taken from checkpoint file:
 phosphamine_b.chk
 Charge = -1 Multiplicity = 1

 SCF Done:  E(RB+HF-LYP) =  -740.520788149     A.U. after    7 cycles
 SCF Done:  E(RB+HF-LYP) =  -740.520789942     A.U. after    8 cycles
 SCF Done:  E(RB+HF-LYP) =  -740.520792931     A.U. after    8 cycles
 SCF Done:  E(RB+HF-LYP) =  -740.520791696     A.U. after    7 cycles
 SCF Done:  E(RB+HF-LYP) =  -740.520793889     A.U. after    7 cycles
 SCF Done:  E(RB+HF-LYP) =  -740.520794254     A.U. after    7 cycles
 SCF Done:  E(RB+HF-LYP) =  -740.520793962     A.U. after    7 cycles
 SCF Done:  E(RB+HF-LYP) =  -740.520783741     A.U. after    9 cycles
 SCF Done:  E(RB+HF-LYP) =  -740.520792546     A.U. after    9 cycles
 SCF Done:  E(RB+HF-LYP) =  -740.520793270     A.U. after    7 cycles
 Optimization completed.
    -- Stationary point found.
 Normal termination of Gaussian 03 at Wed Jul  9 18:24:14 2008.

 ----------------------------------------------------------------------
 #p opt=gdiis b3lyp/cc-pVTZ scf=(tight,novaracc,noincfock) integral=(gr
 id=ultrafine) guess=read geom=checkpoint scrf=(pcm,solvent=water,read)
 ----------------------------------------------------------------------

 Phosphamine form B, geometry.
 -----------------------------
 Redundant internal coordinates taken from checkpoint file:
 phosphamine_b.chk
 Charge = -1 Multiplicity = 1

 SCF Done:  E(RB+HF-LYP) =  -740.737444034     A.U. after   11 cycles
 SCF Done:  E(RB+HF-LYP) =  -740.740471852     A.U. after   10 cycles
 SCF Done:  E(RB+HF-LYP) =  -740.740817203     A.U. after    9 cycles
 SCF Done:  E(RB+HF-LYP) =  -740.740986203     A.U. after    9 cycles
 SCF Done:  E(RB+HF-LYP) =  -740.741054128     A.U. after    9 cycles
 SCF Done:  E(RB+HF-LYP) =  -740.741040851     A.U. after    8 cycles
 SCF Done:  E(RB+HF-LYP) =  -740.741039921     A.U. after    7 cycles
 SCF Done:  E(RB+HF-LYP) =  -740.741040042     A.U. after    6 cycles
 SCF Done:  E(RB+HF-LYP) =  -740.741039957     A.U. after    6 cycles
 Optimization completed.
    -- Stationary point found.
 Normal termination of Gaussian 03 at Wed Jul  9 20:14:24 2008.
 Gaussian 03:  IA64L-G03RevD.01 13-Oct-2005

 ----------------------------------------------------------------------
 #p nmr=giao b3lyp/cc-pVTZ guess=read geom=checkpoint integral=(grid=ul
 trafine) scrf=(pcm,solvent=water,read) scf=(tight,novaracc,noincfock)
 ----------------------------------------------------------------------

 Phosphamine form B, chemical shifts.
 ------------------------------------
 Redundant internal coordinates taken from checkpoint file:
 phosphamine_b.chk
 Charge = -1 Multiplicity = 1

                         Standard orientation:
 ---------------------------------------------------------------------
 Center     Atomic     Atomic              Coordinates (Angstroms)
 Number     Number      Type              X           Y           Z
 ---------------------------------------------------------------------
    1          6             0       -1.399346    0.082661    0.468419
    2          1             0       -1.140214   -0.189424    1.499421
    3          1             0       -1.350623    1.172200    0.376873
    4          6             0       -2.757050   -0.437460    0.107420
    5          1             0       -2.884808   -1.517022    0.164241
    6          6             0       -3.780854    0.327401   -0.250774
    7          1             0       -3.686233    1.405623   -0.315441
    8          1             0       -4.749700   -0.095330   -0.484233
    9         15             0        1.511682    0.075864    0.005142
   10          8             0        1.385969    1.571089   -0.184685
   11          8             0        2.208089   -0.707842   -1.086074
   12          8             0        1.640851   -0.438959    1.421703
   13          1             0       -0.502209   -0.247764   -1.374072
   14          1             0       -0.330898   -1.505735   -0.338647
   15          7             0       -0.326617   -0.484344   -0.394744
 ---------------------------------------------------------------------

 SCF Done:  E(RB+HF-LYP) =  -740.741039957     A.U. after    1 cycles

  1  C    Isotropic =   132.9399   Anisotropy =    31.6007

  2  H    Isotropic =    27.6239   Anisotropy =     4.1651

  3  H    Isotropic =    27.8851   Anisotropy =     5.0347

  4  C    Isotropic =    39.1215   Anisotropy =   169.7904

  5  H    Isotropic =    25.3100   Anisotropy =     5.0239

  6  C    Isotropic =    61.6253   Anisotropy =   144.3926

  7  H    Isotropic =    26.1591   Anisotropy =     5.9310

  8  H    Isotropic =    26.2948   Anisotropy =     5.3385

  9  P    Isotropic =   291.6586   Anisotropy =    84.6554

 10  O    Isotropic =   190.4149   Anisotropy =   118.1729

 11  O    Isotropic =   172.9126   Anisotropy =   115.7047

 12  O    Isotropic =   192.2003   Anisotropy =   117.5264

 13  H    Isotropic =    28.1006   Anisotropy =     7.9699

 14  H    Isotropic =    27.7877   Anisotropy =     8.4170

 15  N    Isotropic =   165.3153   Anisotropy =    61.0666

 The electronic state is 1-A.
 Alpha  occ. eigenvalues --  -77.12927 -19.03058 -19.03050 -19.02992 -14.36439
 Alpha  occ. eigenvalues --  -10.20860 -10.18208 -10.17159  -6.57590  -4.74233
 Alpha  occ. eigenvalues --   -4.73657  -4.73656  -0.96985  -0.92237  -0.88105
 Alpha  occ. eigenvalues --   -0.88095  -0.78504  -0.67946  -0.57165  -0.53415
 Alpha  occ. eigenvalues --   -0.49652  -0.48185  -0.44093  -0.43281  -0.39871
 Alpha  occ. eigenvalues --   -0.37730  -0.35453  -0.35149  -0.34927  -0.28375
 Alpha  occ. eigenvalues --   -0.27274  -0.27241  -0.26343  -0.24714  -0.24684
 Alpha  occ. eigenvalues --   -0.20841
 Alpha virt. eigenvalues --   -0.00435   0.04615   0.06948   0.07384   0.09227
 Alpha virt. eigenvalues --    0.11826   0.12040   0.13366   0.14544   0.15867
 Alpha virt. eigenvalues --    0.16266   0.19836   0.20966   0.23533   0.26142

 Mulliken atomic charges:
              1
     1  C   -0.049181
     2  H    0.114593
     3  H    0.106433
     4  C   -0.114724
     5  H    0.138244
     6  C   -0.299614
     7  H    0.127053
     8  H    0.128452
     9  P    0.783428
    10  O   -0.723553
    11  O   -0.730488
    12  O   -0.723999
    13  H    0.146079
    14  H    0.150030
    15  N   -0.052752
 Sum of Mulliken charges=  -1.00000

 Dipole moment (field-independent basis, Debye):
    X=   -15.3009    Y=    -2.7503    Z=    -1.4807  Tot=    15.6164
 Quadrupole moment (field-independent basis, Debye-Ang):
   XX=   -78.9198   YY=   -63.3183   ZZ=   -66.6403
   XY=     1.6125   XZ=     2.2476   YZ=     0.8717

 Normal termination of Gaussian 03 at Wed Jul  9 20:36:17 2008.
