 Gaussian 03, Revision C.02,
 Gaussian 03:  IA32L-G03RevC.02 12-Jun-2004

 ------------------------------------------------------
 #p ub3lyp/EPR-II guess=mix geom=connectivity scf=tight
 ------------------------------------------------------

 ----------------
 Carotene cation.
 ----------------
 Symbolic Z-matrix:
 Charge =  1 Multiplicity = 2

                         Standard orientation:
 ---------------------------------------------------------------------
 Center     Atomic     Atomic              Coordinates (Angstroms)
 Number     Number      Type              X           Y           Z
 ---------------------------------------------------------------------
    1          6             0       15.264966   -1.738620    0.025415
    2          6             0       15.331249   -0.354112    0.195025
    3          6             0       14.019896   -2.366881   -0.095773
    4          6             0       14.160857    0.395415    0.243026
    5          1             0       16.293769    0.138523    0.289600
    6          6             0       12.850097   -1.620625   -0.048420
    7          1             0       13.966985   -3.443124   -0.227488
    8          6             0       12.895936   -0.219032    0.122708
    9          1             0       14.214366    1.472749    0.374982
   10          1             0       11.895267   -2.126999   -0.144415
   11          6             0       11.712724    0.620217    0.181416
   12          1             0       11.916070    1.679576    0.320661
   13          6             0       10.409970    0.222489    0.082862
   14          1             0       10.190342   -0.833212   -0.056763
   15          6             0        9.270924    1.091304    0.150118
   16          6             0        8.011732    0.514083    0.036194
   17          1             0        7.983127   -0.566133   -0.100926
   18          6             0        6.763157    1.165194    0.081493
   19          1             0        6.739107    2.241258    0.221374
   20          6             0        5.558363    0.488802   -0.041094
   21          1             0        5.603843   -0.590144   -0.181533
   22          6             0        4.270516    1.070169    0.005136
   23          6             0        3.167412    0.214575   -0.131309
   24          1             0        3.394245   -0.841248   -0.274547
   25          6             0        1.813211    0.556451   -0.099674
   26          1             0        1.524438    1.594152    0.047187
   27          6             0        0.788536   -0.380887   -0.244534
   28          1             0        1.079029   -1.417680   -0.394052
   29          6             0       -0.566347   -0.044070   -0.203118
   30          1             0       -0.797334    1.008995   -0.046781
   31          6             0       -1.666245   -0.905129   -0.337169
   32          6             0       -2.957018   -0.336708   -0.253021
   33          1             0       -3.010365    0.738037   -0.085814
   34          6             0       -4.157251   -1.025571   -0.360088
   35          1             0       -4.121492   -2.096947   -0.529677
   36          6             0       -5.413066   -0.398502   -0.254019
   37          1             0       -5.399744    0.677162   -0.082992
   38          6             0       -6.665478   -0.998525   -0.335485
   39          6             0       -7.818594   -0.158999   -0.180459
   40          1             0       -7.618945    0.895385   -0.015235
   41          6             0       -9.114634   -0.599428   -0.168703
   42          1             0       -9.262011   -1.675468   -0.228101
   43          6             0        9.477696    2.572772    0.340181
   44          1             0       10.086722    2.984174   -0.471822
   45          1             0        8.543214    3.131704    0.366444
   46          1             0       10.010250    2.772018    1.276379
   47          6             0        4.121753    2.559616    0.201712
   48          1             0        4.548321    2.869216    1.161935
   49          1             0        4.652354    3.109031   -0.582933
   50          1             0        3.082781    2.886106    0.182751
   51          6             0       -1.509405   -2.389768   -0.563406
   52          1             0       -0.467311   -2.705554   -0.586802
   53          1             0       -2.007285   -2.958131    0.229210
   54          1             0       -1.965040   -2.687499   -1.513907
   55          6             0       -6.846943   -2.477048   -0.570606
   56          1             0       -5.903105   -3.007371   -0.689272
   57          1             0       -7.381206   -2.938129    0.267518
   58          1             0       -7.444396   -2.655516   -1.470543
   59          6             0      -10.335466    0.172981    0.012744
   60          6             0      -10.523139    1.419894   -0.518022
   61          6             0      -11.447174   -0.572809    0.796702
   62          6             0      -11.801449    2.204098   -0.309354
   63          6             0      -12.535673    0.416589    1.272818
   64          6             0      -12.989758    1.374628    0.176951
   65          1             0      -12.053179    2.729399   -1.238665
   66          1             0      -11.582311    3.002236    0.418940
   67          1             0      -13.382670   -0.157528    1.666328
   68          1             0      -12.139454    1.001535    2.113899
   69          1             0      -13.781435    2.035448    0.545247
   70          1             0      -13.418661    0.816574   -0.663307
   71          6             0      -10.863220   -1.249702    2.058693
   72          1             0      -10.165890   -2.057898    1.819141
   73          1             0      -10.336487   -0.525532    2.688536
   74          1             0      -11.673010   -1.685824    2.653175
   75          6             0      -12.079238   -1.659411   -0.106091
   76          1             0      -11.335204   -2.380651   -0.459898
   77          1             0      -12.835425   -2.222181    0.451978
   78          1             0      -12.558897   -1.226136   -0.987805
   79          6             0       -9.513449    2.147074   -1.372841
   80          1             0      -10.025468    2.695310   -2.170528
   81          1             0       -8.967683    2.899757   -0.786940
   82          1             0       -8.779197    1.484605   -1.832216
   83          1             0       16.176285   -2.327200   -0.012351
 ---------------------------------------------------------------------

 SCF Done:  E(UB+HF-LYP) =  -1437.56719812     A.U. after   29 cycles

 The electronic state is 2-A.
 Alpha  occ. eigenvalues --  -10.31598 -10.31559 -10.31353 -10.31246 -10.30279
 Alpha  occ. eigenvalues --  -10.30219 -10.30157 -10.30070 -10.29860 -10.29792
 Alpha  occ. eigenvalues --  -10.29320 -10.29242 -10.29229 -10.28968 -10.28908
 Alpha  occ. eigenvalues --  -10.28876 -10.28552 -10.28503 -10.28130 -10.27960
 Alpha  occ. eigenvalues --  -10.27396 -10.27344 -10.27317 -10.27263 -10.27196
 Alpha  occ. eigenvalues --  -10.27158 -10.27113 -10.26973 -10.26897 -10.26833
 Alpha  occ. eigenvalues --  -10.26769 -10.25328 -10.24994 -10.24260 -10.24039
 Alpha  occ. eigenvalues --  -10.23566 -10.23482  -0.94267  -0.93872  -0.93498
 Alpha  occ. eigenvalues --   -0.92922  -0.92065  -0.91466  -0.89397  -0.87358
 Alpha  occ. eigenvalues --   -0.86251  -0.85760  -0.84553  -0.83602  -0.82070
 Alpha  occ. eigenvalues --   -0.80815  -0.80303  -0.79616  -0.78461  -0.78308
 Alpha  occ. eigenvalues --   -0.77039  -0.75968  -0.74730  -0.74164  -0.73739
 Alpha  occ. eigenvalues --   -0.71512  -0.69444  -0.68067  -0.67153  -0.65721
 Alpha  occ. eigenvalues --   -0.64794  -0.64252  -0.63481  -0.63343  -0.62626
 Alpha  occ. eigenvalues --   -0.61461  -0.60749  -0.59508  -0.59030  -0.57843
 Alpha  occ. eigenvalues --   -0.57092  -0.56146  -0.56073  -0.54588  -0.54099
 Alpha  occ. eigenvalues --   -0.53754  -0.53066  -0.52269  -0.52044  -0.51516
 Alpha  occ. eigenvalues --   -0.51404  -0.51294  -0.50960  -0.50761  -0.50685
 Alpha  occ. eigenvalues --   -0.50601  -0.49615  -0.49372  -0.49294  -0.49045
 Alpha  occ. eigenvalues --   -0.48638  -0.48368  -0.47664  -0.47426  -0.47311
 Alpha  occ. eigenvalues --   -0.46970  -0.46459  -0.46445  -0.45950  -0.45529
 Alpha  occ. eigenvalues --   -0.45458  -0.45249  -0.45091  -0.44923  -0.44435
 Alpha  occ. eigenvalues --   -0.44191  -0.44172  -0.43862  -0.43602  -0.43226
 Alpha  occ. eigenvalues --   -0.42896  -0.42256  -0.42223  -0.41810  -0.41480
 Alpha  occ. eigenvalues --   -0.41169  -0.40930  -0.40008  -0.39225  -0.38252
 Alpha  occ. eigenvalues --   -0.37685  -0.37076  -0.36364  -0.34826  -0.32898
 Alpha  occ. eigenvalues --   -0.32730  -0.30733  -0.28375  -0.25930
 Alpha virt. eigenvalues --   -0.19708  -0.15158  -0.12060  -0.09100  -0.08076
 Alpha virt. eigenvalues --   -0.06810  -0.06625  -0.06450  -0.05853  -0.05420
 Alpha virt. eigenvalues --   -0.05022  -0.04752  -0.04586  -0.04285  -0.03624

  Beta  occ. eigenvalues --  -10.31479 -10.31407 -10.31140 -10.31014 -10.30212
  Beta  occ. eigenvalues --  -10.30156 -10.29993 -10.29879 -10.29822 -10.29786
  Beta  occ. eigenvalues --  -10.29358 -10.29296 -10.29026 -10.29015 -10.28948
  Beta  occ. eigenvalues --  -10.28699 -10.28594 -10.28353 -10.28221 -10.28037
  Beta  occ. eigenvalues --  -10.27405 -10.27354 -10.27253 -10.27197 -10.27169
  Beta  occ. eigenvalues --  -10.27143 -10.27120 -10.26987 -10.26927 -10.26848
  Beta  occ. eigenvalues --  -10.26801 -10.25336 -10.25003 -10.24258 -10.24038
  Beta  occ. eigenvalues --  -10.23568 -10.23482  -0.94043  -0.93683  -0.93305
  Beta  occ. eigenvalues --   -0.92728  -0.91853  -0.91254  -0.89186  -0.87124
  Beta  occ. eigenvalues --   -0.86042  -0.85646  -0.84332  -0.83390  -0.82008
  Beta  occ. eigenvalues --   -0.80775  -0.80206  -0.79513  -0.78444  -0.78305
  Beta  occ. eigenvalues --   -0.76905  -0.75806  -0.74730  -0.74110  -0.73557
  Beta  occ. eigenvalues --   -0.71345  -0.69303  -0.68000  -0.67041  -0.65623
  Beta  occ. eigenvalues --   -0.64690  -0.64137  -0.63374  -0.63246  -0.62523
  Beta  occ. eigenvalues --   -0.61332  -0.60629  -0.59456  -0.58954  -0.57754
  Beta  occ. eigenvalues --   -0.57037  -0.56060  -0.56007  -0.54516  -0.53994
  Beta  occ. eigenvalues --   -0.53684  -0.53017  -0.52197  -0.51996  -0.51412
  Beta  occ. eigenvalues --   -0.51192  -0.51072  -0.50796  -0.50580  -0.50461
  Beta  occ. eigenvalues --   -0.50455  -0.49563  -0.49274  -0.49249  -0.49008
  Beta  occ. eigenvalues --   -0.48577  -0.48304  -0.47615  -0.47399  -0.47272
  Beta  occ. eigenvalues --   -0.46948  -0.46408  -0.46393  -0.45900  -0.45454
  Beta  occ. eigenvalues --   -0.45395  -0.45205  -0.44847  -0.44783  -0.44385
  Beta  occ. eigenvalues --   -0.44160  -0.43831  -0.43716  -0.43558  -0.43187
  Beta  occ. eigenvalues --   -0.42410  -0.42167  -0.41776  -0.41711  -0.41414
  Beta  occ. eigenvalues --   -0.41144  -0.40916  -0.39492  -0.38726  -0.38104
  Beta  occ. eigenvalues --   -0.37453  -0.36678  -0.36210  -0.34136  -0.32577
  Beta  occ. eigenvalues --   -0.32154  -0.29975  -0.27691
  Beta virt. eigenvalues --   -0.22369  -0.18314  -0.14431  -0.11420  -0.08527
  Beta virt. eigenvalues --   -0.07868  -0.06702  -0.06442  -0.06134  -0.05822
  Beta virt. eigenvalues --   -0.05370  -0.05001  -0.04699  -0.04337  -0.04025

 Mulliken atomic charges:
              1
     1  C   -0.113024
     2  C   -0.110364
     3  C   -0.110997
     4  C   -0.277392
     5  H    0.118771
     6  C   -0.275065
     7  H    0.115672
     8  C    0.565820
     9  H    0.113549
    10  H    0.101278
    11  C   -0.244664
    12  H    0.122954
    13  C   -0.154018
    14  H    0.096480
    15  C    0.424395
    16  C   -0.194999
    17  H    0.104284
    18  C   -0.103385
    19  H    0.113284
    20  C   -0.171946
    21  H    0.106654
    22  C    0.416074
    23  C   -0.200293
    24  H    0.106222
    25  C   -0.082836
    26  H    0.108381
    27  C   -0.080822
    28  H    0.107976
    29  C   -0.202391
    30  H    0.106453
    31  C    0.417230
    32  C   -0.174785
    33  H    0.107002
    34  C   -0.097507
    35  H    0.113113
    36  C   -0.204305
    37  H    0.105149
    38  C    0.419135
    39  C   -0.177825
    40  H    0.122225
    41  C   -0.199341
    42  H    0.110570
    43  C   -0.610051
    44  H    0.178756
    45  H    0.143602
    46  H    0.179348
    47  C   -0.614849
    48  H    0.179578
    49  H    0.176006
    50  H    0.148168
    51  C   -0.615035
    52  H    0.148325
    53  H    0.176668
    54  H    0.178597
    55  C   -0.608758
    56  H    0.142690
    57  H    0.176816
    58  H    0.180986
    59  C    0.139795
    60  C    0.216996
    61  C    0.336331
    62  C   -0.322970
    63  C   -0.328175
    64  C   -0.320755
    65  H    0.138486
    66  H    0.157341
    67  H    0.127693
    68  H    0.139998
    69  H    0.130716
    70  H    0.155930
    71  C   -0.536089
    72  H    0.130008
    73  H    0.158168
    74  H    0.149117
    75  C   -0.521526
    76  H    0.130920
    77  H    0.150639
    78  H    0.154440
    79  C   -0.603615
    80  H    0.152124
    81  H    0.168740
    82  H    0.166114
    83  H    0.122016
 Sum of Mulliken charges=   1.00000

 Dipole moment (field-independent basis, Debye):
    X=     3.8154    Y=     0.5810    Z=    -0.3836  Tot=     3.8784
 Quadrupole moment (field-independent basis, Debye-Ang):
   XX=   180.8365   YY=  -188.2670   ZZ=  -231.7983
   XY=     5.9358   XZ=     5.2619   YZ=     4.2604

 Normal termination of Gaussian 03 at Mon Apr  3 23:11:07 2006.
