 Gaussian 03, Revision D.01,

 ----------------------------------------------------------------------
 #p opt=gdiis b3lyp/Gen scf=tight pseudo=read geom=checkpoint integral=
 (grid=ultrafine)
 ----------------------------------------------------------------------

 ---------------------
 No Z-matrix found on checkpoint file.
 Cartesian coordinates read from the checkpoint file:
 molecule_6.chk
 Charge =  0 Multiplicity = 1

 SCF Done:  E(RB+HF-LYP) =  -1404.26614493     A.U. after   17 cycles
 SCF Done:  E(RB+HF-LYP) =  -1404.26614778     A.U. after   10 cycles
 SCF Done:  E(RB+HF-LYP) =  -1404.26615198     A.U. after   10 cycles
 SCF Done:  E(RB+HF-LYP) =  -1404.26615443     A.U. after   11 cycles
 SCF Done:  E(RB+HF-LYP) =  -1404.26615612     A.U. after   11 cycles
 SCF Done:  E(RB+HF-LYP) =  -1404.26615667     A.U. after    9 cycles
 SCF Done:  E(RB+HF-LYP) =  -1404.26615724     A.U. after   10 cycles
 SCF Done:  E(RB+HF-LYP) =  -1404.26615770     A.U. after   10 cycles
 SCF Done:  E(RB+HF-LYP) =  -1404.26615807     A.U. after   10 cycles
 SCF Done:  E(RB+HF-LYP) =  -1404.26615824     A.U. after    9 cycles
 SCF Done:  E(RB+HF-LYP) =  -1404.26615836     A.U. after    9 cycles
 SCF Done:  E(RB+HF-LYP) =  -1404.26615849     A.U. after    9 cycles
 SCF Done:  E(RB+HF-LYP) =  -1404.26615860     A.U. after    8 cycles
 SCF Done:  E(RB+HF-LYP) =  -1404.26615867     A.U. after    7 cycles
 SCF Done:  E(RB+HF-LYP) =  -1404.26615870     A.U. after    7 cycles
 Optimization completed.
    -- Stationary point found.
 Normal termination of Gaussian 03 at Fri Aug  1 20:13:22 2008.
 Gaussian 03:  IA32L-G03RevD.01 13-Oct-2005

 ----------------------------------------------------------------------
 #p nmr=(giao,spinspin) b3lyp/Gen scf=tight integral=(grid=ultrafine) p
 seudo=read scrf=(pcm,solvent=water,read) guess=read geom=checkpoint
 ----------------------------------------------------------------------

 Molecule 6, NMR and scalar couplings.
 -------------------------------------
 Redundant internal coordinates taken from checkpoint file:
 molecule_6.chk
 Charge =  0 Multiplicity = 1

                         Standard orientation:
 ---------------------------------------------------------------------
 Center     Atomic     Atomic              Coordinates (Angstroms)
 Number     Number      Type              X           Y           Z
 ---------------------------------------------------------------------
    1         15             0       -2.394810   -0.616588   -0.622526
    2          8             0       -2.462546    0.587533   -1.546542
    3          8             0       -3.585474   -1.416226   -0.126612
    4          7             0       -1.512660    0.050710    0.938897
    5          1             0       -1.697309    1.078250    1.011051
    6         16             0       -0.723779   -1.868684   -1.136314
    7          6             0       -0.043752   -0.215750    0.934700
    8          1             0        0.476599    0.670961    1.315057
    9          1             0        0.153222   -1.059206    1.605915
   10          6             0        0.443832   -0.565264   -0.478785
   11          1             0        0.369036    0.306661   -1.139388
   12          6             0        1.849709   -1.135135   -0.515117
   13          1             0        1.969063   -1.991648    0.155951
   14          1             0        2.139908   -1.412866   -1.531218
   15         53             0        3.382085    0.333236    0.112279
   16          8             0       -3.186817   -1.529318    2.565376
   17          1             0       -3.550089   -1.709951    1.668744
   18          1             0       -3.147127   -2.377143    3.020727
   19          8             0       -2.043788    2.775938    1.201187
   20          1             0       -1.437761    3.511378    1.340584
   21          1             0       -2.602781    3.020620    0.418943
   22          1             0       -1.969706   -0.423227    1.739891
   23          8             0       -3.442354    3.054885   -1.066921
   24          1             0       -3.188021    2.149776   -1.368721
   25          1             0       -4.405209    3.082059   -1.098407
 ---------------------------------------------------------------------

 SCF Done:  E(RB+HF-LYP) =  -1404.37507508     A.U. after   13 cycles

  1  P    Isotropic =   232.5359   Anisotropy =   239.9729

  2  O    Isotropic =   121.9990   Anisotropy =    91.4430

  3  O    Isotropic =   125.0323   Anisotropy =    93.5943

  4  N    Isotropic =   173.2893   Anisotropy =    71.9073

  5  H    Isotropic =    21.7301   Anisotropy =    27.1467

  6  S    Isotropic =   442.2448   Anisotropy =   189.0493

  7  C    Isotropic =   142.1113   Anisotropy =    25.6948

  8  H    Isotropic =    27.6114   Anisotropy =     8.1395

  9  H    Isotropic =    28.7137   Anisotropy =     5.9120

 10  C    Isotropic =   130.2784   Anisotropy =    50.5319

 11  H    Isotropic =    27.1346   Anisotropy =     5.5798

 12  C    Isotropic =   157.5843   Anisotropy =    35.9754

 13  H    Isotropic =    28.1853   Anisotropy =     9.7744

 14  H    Isotropic =    27.6694   Anisotropy =    10.5175

 15  I    Isotropic =   271.6601   Anisotropy =    20.6069

 16  O    Isotropic =   315.8516   Anisotropy =    56.0519

 17  H    Isotropic =    26.4458   Anisotropy =    26.0787

 18  H    Isotropic =    29.8027   Anisotropy =    20.7641

 19  O    Isotropic =   308.0313   Anisotropy =    41.3606

 20  H    Isotropic =    29.7208   Anisotropy =    18.9914

 21  H    Isotropic =    24.3089   Anisotropy =    32.7170

 22  H    Isotropic =    23.3799   Anisotropy =    22.9439

 23  O    Isotropic =   309.9683   Anisotropy =    48.7729

 24  H    Isotropic =    25.7138   Anisotropy =    31.7661

 25  H    Isotropic =    29.9006   Anisotropy =    19.4938

 The electronic state is 1-A.
 Alpha  occ. eigenvalues --  -88.90134 -77.17638 -19.15383 -19.15098 -19.15069
 Alpha  occ. eigenvalues --  -19.13688 -19.13446 -14.40914 -10.25355 -10.25032
 Alpha  occ. eigenvalues --  -10.24427  -7.96186  -6.65079  -5.92537  -5.92300
 Alpha  occ. eigenvalues --   -5.91621  -4.81477  -4.81215  -4.80967  -2.14417
 Alpha  occ. eigenvalues --   -2.14046  -2.14011  -2.12983  -2.12982  -1.02901
 Alpha  occ. eigenvalues --   -1.02095  -1.01274  -1.00625  -0.96539  -0.96078
 Alpha  occ. eigenvalues --   -0.84322  -0.74793  -0.72200  -0.66509  -0.60140
 Alpha  occ. eigenvalues --   -0.57442  -0.57062  -0.54370  -0.53500  -0.52871
 Alpha  occ. eigenvalues --   -0.51559  -0.49901  -0.44822  -0.44365  -0.43065
 Alpha  occ. eigenvalues --   -0.42307  -0.42286  -0.40315  -0.39749  -0.38814
 Alpha  occ. eigenvalues --   -0.38092  -0.37690  -0.34062  -0.33788  -0.32705
 Alpha  occ. eigenvalues --   -0.32413  -0.32216  -0.32036  -0.31447  -0.30698
 Alpha  occ. eigenvalues --   -0.26630  -0.26265  -0.25997
 Alpha virt. eigenvalues --   -0.06113  -0.02292  -0.01417   0.00494   0.00872
 Alpha virt. eigenvalues --    0.01530   0.02660   0.03339   0.03602   0.03933
 Alpha virt. eigenvalues --    0.04555   0.05162   0.05746   0.06564   0.06858

 Mulliken atomic charges:
              1
     1  P    1.364742
     2  O   -0.909596
     3  O   -0.904877
     4  N   -0.543829
     5  H    0.374137
     6  S   -0.032925
     7  C   -0.191040
     8  H    0.230632
     9  H    0.234713
    10  C   -0.079680
    11  H    0.216184
    12  C   -0.671572
    13  H    0.243008
    14  H    0.232054
    15  I    0.086075
    16  O   -0.637545
    17  H    0.337819
    18  H    0.303446
    19  O   -0.668883
    20  H    0.298374
    21  H    0.362914
    22  H    0.339134
    23  O   -0.657551
    24  H    0.374202
    25  H    0.300064
 Sum of Mulliken charges=   0.00000

 Dipole moment (field-independent basis, Debye):
    X=     4.7414    Y=    -0.2030    Z=     3.9897  Tot=     6.2000
 Quadrupole moment (field-independent basis, Debye-Ang):
   XX=  -122.7178   YY=  -100.8052   ZZ=  -111.4233
   XY=    -4.4900   XZ=    -4.5570   YZ=    -2.3022

 Normal termination of Gaussian 03 at Sat Aug  2 05:28:41 2008.
