 Gaussian 03, Revision D.01,

 -------------------------------------------------------------------
 #p opt=gdiis b3lyp/aug-cc-pVDZ scf=tight guess=read geom=checkpoint
 -------------------------------------------------------------------

 Molecule 1, geometry.
 ---------------------
 Redundant internal coordinates taken from checkpoint file:
 molecule_1.chk
 Charge = -2 Multiplicity = 1

 SCF Done:  E(RB+HF-LYP) =  -1292.21604523     A.U. after   12 cycles
 SCF Done:  E(RB+HF-LYP) =  -1292.22071213     A.U. after   12 cycles
 SCF Done:  E(RB+HF-LYP) =  -1292.22222575     A.U. after   12 cycles
 SCF Done:  E(RB+HF-LYP) =  -1292.22335533     A.U. after   13 cycles
 SCF Done:  E(RB+HF-LYP) =  -1292.22432407     A.U. after   14 cycles
 SCF Done:  E(RB+HF-LYP) =  -1292.22513183     A.U. after   13 cycles
 SCF Done:  E(RB+HF-LYP) =  -1292.22428175     A.U. after   14 cycles
 SCF Done:  E(RB+HF-LYP) =  -1292.22608190     A.U. after   14 cycles
 SCF Done:  E(RB+HF-LYP) =  -1292.22653158     A.U. after   11 cycles
 SCF Done:  E(RB+HF-LYP) =  -1292.22622427     A.U. after   16 cycles
 SCF Done:  E(RB+HF-LYP) =  -1292.22754016     A.U. after    9 cycles
 SCF Done:  E(RB+HF-LYP) =  -1292.22754360     A.U. after    9 cycles
 SCF Done:  E(RB+HF-LYP) =  -1292.22754938     A.U. after   10 cycles
 SCF Done:  E(RB+HF-LYP) =  -1292.22755563     A.U. after   10 cycles
 SCF Done:  E(RB+HF-LYP) =  -1292.22756155     A.U. after   10 cycles
 SCF Done:  E(RB+HF-LYP) =  -1292.22756629     A.U. after    9 cycles
 SCF Done:  E(RB+HF-LYP) =  -1292.22756854     A.U. after    9 cycles
 SCF Done:  E(RB+HF-LYP) =  -1292.22757042     A.U. after    8 cycles
 SCF Done:  E(RB+HF-LYP) =  -1292.22757099     A.U. after    7 cycles
 Optimization completed.
    -- Stationary point found.
 Normal termination of Gaussian 03 at Mon Jul 28 09:46:41 2008.
 Gaussian 03:  IA64L-G03RevD.01 13-Oct-2005

 ----------------------------------------------------------------------
 #p nmr=giao b3lyp/Gen scf=tight integral=(grid=ultrafine) guess=read s
 crf=(pcm,solvent=water,read) geom=checkpoint
 ----------------------------------------------------------------------

 Molecule 1, NMR and scalar couplings.
 -------------------------------------
 Redundant internal coordinates taken from checkpoint file:
 molecule_1.chk
 Charge = -2 Multiplicity = 1

                         Standard orientation:
 ---------------------------------------------------------------------
 Center     Atomic     Atomic              Coordinates (Angstroms)
 Number     Number      Type              X           Y           Z
 ---------------------------------------------------------------------
    1          6             0       -2.147606   -0.054187   -0.049930
    2          1             0       -1.933022    0.163305   -1.110448
    3          1             0       -2.367965    0.914854    0.438703
    4          7             0       -0.964672   -0.729355    0.472106
    5          1             0       -1.012599   -0.821338    1.486544
    6         15             0        0.608679    0.028799    0.114888
    7          8             0        1.589717   -0.816425    0.995524
    8          8             0        0.501203    1.535611    0.550511
    9         16             0        0.837592   -0.195434   -1.944980
   10          6             0       -3.344801   -0.959086    0.028269
   11          1             0       -3.196653   -1.947718   -0.420466
   12          6             0       -4.522036   -0.667027    0.603470
   13          1             0       -5.349311   -1.381406    0.618946
   14          1             0       -4.693912    0.301137    1.081786
   15          8             0        1.861592    1.180264    3.027257
   16          1             0        1.986210    0.324110    2.565153
   17          1             0        1.363834    1.624317    2.306456
   18          8             0        2.701807   -2.834974   -0.512496
   19          1             0        2.363450   -2.189208    0.160975
   20          1             0        2.333199   -2.412332   -1.306293
   21          8             0        0.127394    3.201123   -1.599717
   22          1             0        0.240579    2.736877   -0.729088
   23          1             0        0.320201    2.444859   -2.180147
 ---------------------------------------------------------------------

 SCF Done:  E(RB+HF-LYP) =  -1292.56609051     A.U. after   12 cycles

  1  C    Isotropic =   141.2196   Anisotropy =    28.1750

  2  H    Isotropic =    27.6763   Anisotropy =     5.7088

  3  H    Isotropic =    27.8428   Anisotropy =     6.4483

  4  N    Isotropic =   158.8441   Anisotropy =   108.8938

  5  H    Isotropic =    29.7979   Anisotropy =     6.7484

  6  P    Isotropic =   200.0610   Anisotropy =    64.5723

  7  O    Isotropic =   143.8341   Anisotropy =    81.8555

  8  O    Isotropic =   130.6806   Anisotropy =   116.6269

  9  S    Isotropic =   647.7850   Anisotropy =   396.5672

 10  C    Isotropic =    43.5177   Anisotropy =   163.3532

 11  H    Isotropic =    25.2229   Anisotropy =     5.8951

 12  C    Isotropic =    82.3550   Anisotropy =   124.3568

 13  H    Isotropic =    26.5353   Anisotropy =     5.9718

 14  H    Isotropic =    26.3848   Anisotropy =     5.9630

 15  O    Isotropic =   305.0704   Anisotropy =    41.5816

 16  H    Isotropic =    28.4329   Anisotropy =    23.9229

 17  H    Isotropic =    28.2478   Anisotropy =    24.8392

 18  O    Isotropic =   310.7225   Anisotropy =    33.7799

 19  H    Isotropic =    25.6317   Anisotropy =    30.9831

 20  H    Isotropic =    30.0777   Anisotropy =    19.2488

 21  O    Isotropic =   309.6352   Anisotropy =    29.6524

 22  H    Isotropic =    25.5118   Anisotropy =    30.3504

 23  H    Isotropic =    30.0089   Anisotropy =    19.4691

 The electronic state is 1-A.
 Alpha  occ. eigenvalues --  -88.79457 -77.11088 -19.11572 -19.11546 -19.11365
 Alpha  occ. eigenvalues --  -19.07520 -19.07223 -14.29327 -10.18896 -10.18208
 Alpha  occ. eigenvalues --  -10.17365  -7.85461  -6.58335  -5.81882  -5.81241
 Alpha  occ. eigenvalues --   -5.81221  -4.74574  -4.74485  -4.74420  -0.97983
 Alpha  occ. eigenvalues --   -0.97652  -0.97465  -0.94574  -0.89137  -0.85953
 Alpha  occ. eigenvalues --   -0.76098  -0.65240  -0.63865  -0.54616  -0.49977
 Alpha  occ. eigenvalues --   -0.48239  -0.47956  -0.47793  -0.47065  -0.42489
 Alpha  occ. eigenvalues --   -0.41411  -0.40807  -0.39225  -0.38135  -0.37330
 Alpha  occ. eigenvalues --   -0.36237  -0.35470  -0.33903  -0.33335  -0.29115
 Alpha  occ. eigenvalues --   -0.28916  -0.28763  -0.27464  -0.26885  -0.25872
 Alpha  occ. eigenvalues --   -0.25746  -0.24569  -0.22126  -0.19714  -0.19268
 Alpha virt. eigenvalues --   -0.00208   0.00567   0.01528   0.01783   0.02142
 Alpha virt. eigenvalues --    0.03731   0.04088   0.04651   0.05399   0.05778
 Alpha virt. eigenvalues --    0.07325   0.07489   0.08419   0.08844   0.08997

 Mulliken atomic charges:
              1
     1  C   -0.288310
     2  H    0.179652
     3  H    0.188601
     4  N   -0.527878
     5  H    0.234366
     6  P    1.213607
     7  O   -1.132004
     8  O   -1.086144
     9  S   -0.825756
    10  C    0.255300
    11  H    0.142131
    12  C   -0.550949
    13  H    0.134127
    14  H    0.129033
    15  O   -0.638044
    16  H    0.307771
    17  H    0.311004
    18  O   -0.644668
    19  H    0.355183
    20  H    0.270214
    21  O   -0.649930
    22  H    0.354517
    23  H    0.268175
 Sum of Mulliken charges=  -2.00000

 Dipole moment (field-independent basis, Debye):
    X=   -11.8684    Y=    -1.9887    Z=     0.8996  Tot=    12.0674
 Quadrupole moment (field-independent basis, Debye-Ang):
   XX=  -121.8305   YY=  -137.9331   ZZ=  -123.4630
   XY=     9.0691   XZ=    -8.5102   YZ=    -0.0543

 Normal termination of Gaussian 03 at Mon Jul 28 09:55:29 2008.
