 Gaussian 03, Revision D.01,

 ----------------------------------------------------------------------
 #p opt=gdiis b3lyp/Gen scf=tight pseudo=read integral=(grid=ultrafine)
 ----------------------------------------------------------------------

 ---------------------
 Molecule 9, geometry.
 ---------------------
 Symbolic Z-matrix:
 Charge = -1 Multiplicity = 1

 SCF Done:  E(RB+HF-LYP) =  -1403.70288346     A.U. after   18 cycles
 SCF Done:  E(RB+HF-LYP) =  -1403.71896975     A.U. after   15 cycles
 SCF Done:  E(RB+HF-LYP) =  -1403.72655829     A.U. after   13 cycles
 SCF Done:  E(RB+HF-LYP) =  -1403.73231694     A.U. after   15 cycles
 SCF Done:  E(RB+HF-LYP) =  -1403.73681088     A.U. after   14 cycles
 SCF Done:  E(RB+HF-LYP) =  -1403.73883794     A.U. after   14 cycles
 SCF Done:  E(RB+HF-LYP) =  -1403.73941644     A.U. after   14 cycles
 SCF Done:  E(RB+HF-LYP) =  -1403.73976243     A.U. after   12 cycles
 SCF Done:  E(RB+HF-LYP) =  -1403.74009123     A.U. after   14 cycles
 SCF Done:  E(RB+HF-LYP) =  -1403.74022479     A.U. after   12 cycles
 SCF Done:  E(RB+HF-LYP) =  -1403.74175642     A.U. after   10 cycles
 SCF Done:  E(RB+HF-LYP) =  -1403.74175686     A.U. after   10 cycles
 SCF Done:  E(RB+HF-LYP) =  -1403.74175717     A.U. after   10 cycles
 SCF Done:  E(RB+HF-LYP) =  -1403.74175728     A.U. after    9 cycles
 SCF Done:  E(RB+HF-LYP) =  -1403.74175740     A.U. after    9 cycles
 SCF Done:  E(RB+HF-LYP) =  -1403.74175746     A.U. after    9 cycles
 SCF Done:  E(RB+HF-LYP) =  -1403.74175747     A.U. after    9 cycles
 SCF Done:  E(RB+HF-LYP) =  -1403.74175749     A.U. after    8 cycles
 SCF Done:  E(RB+HF-LYP) =  -1403.74175749     A.U. after    8 cycles
 Optimization completed.
    -- Stationary point found.
 Normal termination of Gaussian 03 at Sat Aug  2 18:31:59 2008.
 Gaussian 03:  IA64L-G03RevD.01 13-Oct-2005

 ----------------------------------------------------------------------
 #p nmr=giao b3lyp/Gen scf=tight integral=(grid=ultrafine) pseudo=read
 scrf=(pcm,solvent=water,read) guess=read geom=checkpoint
 ----------------------------------------------------------------------

 Molecule 9, NMR.
 ----------------
 Redundant internal coordinates taken from checkpoint file:
 molecule_9.chk
 Charge = -1 Multiplicity = 1

                         Standard orientation:
 ---------------------------------------------------------------------
 Center     Atomic     Atomic              Coordinates (Angstroms)
 Number     Number      Type              X           Y           Z
 ---------------------------------------------------------------------
    1          6             0        3.113139   -0.583637    0.614250
    2          1             0        2.524256   -0.888470    1.490507
    3          1             0        4.052191   -0.141418    0.988291
    4          7             0        2.338846    0.423008   -0.103175
    5          1             0        2.695559    0.763631   -0.992112
    6         15             0        0.753905    0.902829    0.265701
    7          8             0        0.450782    2.201838   -0.492745
    8          8             0        0.457486    0.758692    1.759560
    9          6             0        3.426115   -1.788504   -0.234405
   10          1             0        2.555739   -2.307885   -0.647162
   11          6             0        4.658581   -2.230742   -0.507062
   12          1             0        4.827166   -3.114071   -1.124771
   13          1             0        5.544590   -1.723229   -0.117589
   14          8             0       -0.372296    3.680349    1.988088
   15          1             0       -0.185250    3.541743    1.044121
   16          1             0       -0.209267    2.786739    2.330980
   17          8             0        2.029358    2.190086   -2.733788
   18          1             0        1.414822    2.319908   -1.969421
   19          1             0        1.501278    1.684502   -3.362137
   20          8             0        0.329596   -1.751708    2.949901
   21          1             0        0.357107   -0.831696    2.602343
   22          1             0       -0.190852   -2.213344    2.281903
   23         16             0       -0.202183   -0.793779   -0.814112
   24         53             0       -2.635459   -0.616910   -0.372968
 ---------------------------------------------------------------------

 SCF Done:  E(RB+HF-LYP) =  -1403.90099430     A.U. after   12 cycles

  1  C    Isotropic =   143.2625   Anisotropy =    28.4069

  2  H    Isotropic =    27.5051   Anisotropy =     4.5852

  3  H    Isotropic =    27.6273   Anisotropy =     8.8150

  4  N    Isotropic =   168.4730   Anisotropy =    72.1577

  5  H    Isotropic =    27.7084   Anisotropy =    10.7403

  6  P    Isotropic =   248.7473   Anisotropy =   210.8698

  7  O    Isotropic =   148.5116   Anisotropy =    98.2860

  8  O    Isotropic =   157.2059   Anisotropy =    90.6263

  9  C    Isotropic =    47.6936   Anisotropy =   158.1824

 10  H    Isotropic =    25.3647   Anisotropy =     8.4060

 11  C    Isotropic =    78.4833   Anisotropy =   130.2646

 12  H    Isotropic =    26.4146   Anisotropy =     6.5619

 13  H    Isotropic =    26.2792   Anisotropy =     6.4423

 14  O    Isotropic =   317.1809   Anisotropy =    48.9369

 15  H    Isotropic =    29.4866   Anisotropy =    21.6376

 16  H    Isotropic =    29.8468   Anisotropy =    20.6679

 17  O    Isotropic =   319.0732   Anisotropy =    60.5498

 18  H    Isotropic =    26.0248   Anisotropy =    31.7732

 19  H    Isotropic =    30.7998   Anisotropy =    16.3526

 20  O    Isotropic =   324.8489   Anisotropy =    55.6572

 21  H    Isotropic =    26.4157   Anisotropy =    30.3869

 22  H    Isotropic =    30.8567   Anisotropy =    15.9541

 23  S    Isotropic =   456.5102   Anisotropy =   119.1911

 24  I    Isotropic =   263.1997   Anisotropy =    33.8032

 The electronic state is 1-A.
 Alpha  occ. eigenvalues --  -88.89467 -77.14921 -19.13255 -19.13248 -19.12931
 Alpha  occ. eigenvalues --  -19.11172 -19.11137 -14.33570 -10.21420 -10.19110
 Alpha  occ. eigenvalues --  -10.18241  -7.95230  -6.62250  -5.91847  -5.91195
 Alpha  occ. eigenvalues --   -5.90601  -4.78572  -4.78401  -4.78249  -2.14808
 Alpha  occ. eigenvalues --   -2.14381  -2.14319  -2.13119  -2.13119  -1.00306
 Alpha  occ. eigenvalues --   -0.99508  -0.99282  -0.98615  -0.93813  -0.89680
 Alpha  occ. eigenvalues --   -0.77833  -0.74052  -0.67807  -0.64782  -0.56328
 Alpha  occ. eigenvalues --   -0.55544  -0.51221  -0.50848  -0.50364  -0.49421
 Alpha  occ. eigenvalues --   -0.44907  -0.44244  -0.43883  -0.41542  -0.39651
 Alpha  occ. eigenvalues --   -0.39094  -0.38441  -0.37878  -0.37161  -0.35649
 Alpha  occ. eigenvalues --   -0.34543  -0.32004  -0.31347  -0.30420  -0.30335
 Alpha  occ. eigenvalues --   -0.29860  -0.29140  -0.29117  -0.28259  -0.27539
 Alpha  occ. eigenvalues --   -0.25768  -0.24475  -0.22688
 Alpha virt. eigenvalues --   -0.09675  -0.01321  -0.00447   0.01031   0.01469
 Alpha virt. eigenvalues --    0.01734   0.02575   0.03345   0.03949   0.04911
 Alpha virt. eigenvalues --    0.05461   0.05902   0.06901   0.07974   0.08120

 Mulliken atomic charges:
              1
     1  C   -0.220063
     2  H    0.182226
     3  H    0.212014
     4  N   -0.418441
     5  H    0.232050
     6  P    1.327563
     7  O   -1.000893
     8  O   -0.980693
     9  C    0.143556
    10  H    0.134348
    11  C   -0.502915
    12  H    0.141977
    13  H    0.134810
    14  O   -0.601437
    15  H    0.301196
    16  H    0.299557
    17  O   -0.645789
    18  H    0.354317
    19  H    0.287386
    20  O   -0.638670
    21  H    0.356327
    22  H    0.276401
    23  S   -0.353927
    24  I   -0.020900
 Sum of Mulliken charges=  -1.00000

 Dipole moment (field-independent basis, Debye):
    X=    -0.9021    Y=    -8.0112    Z=    -5.4238  Tot=     9.7165
 Quadrupole moment (field-independent basis, Debye-Ang):
   XX=  -110.6538   YY=  -149.8134   ZZ=  -139.9642
   XY=    -3.5120   XZ=     3.7214   YZ=     1.9679

 Normal termination of Gaussian 03 at Sat Aug  2 18:43:14 2008.
