 Gaussian 03, Revision D.01,

 ----------------------------------------------------------------------
 #p opt=gdiis b3lyp/Gen scf=tight pseudo=read integral=(grid=ultrafine)
 ----------------------------------------------------------------------

 ----------------------
 Molecule 10, geometry.
 ----------------------
 Symbolic Z-matrix:
 Charge =  0 Multiplicity = 1

 SCF Done:  E(RB+HF-LYP) =  -1404.20257556     A.U. after   18 cycles
 SCF Done:  E(RB+HF-LYP) =  -1404.21587856     A.U. after   13 cycles
 SCF Done:  E(RB+HF-LYP) =  -1404.22184986     A.U. after   12 cycles
 SCF Done:  E(RB+HF-LYP) =  -1404.22578438     A.U. after   14 cycles
 SCF Done:  E(RB+HF-LYP) =  -1404.22721465     A.U. after   13 cycles
 SCF Done:  E(RB+HF-LYP) =  -1404.23018902     A.U. after   14 cycles
 SCF Done:  E(RB+HF-LYP) =  -1404.23260216     A.U. after   15 cycles
 SCF Done:  E(RB+HF-LYP) =  -1404.23557179     A.U. after   15 cycles
 SCF Done:  E(RB+HF-LYP) =  -1404.23708012     A.U. after   15 cycles
 SCF Done:  E(RB+HF-LYP) =  -1404.23841032     A.U. after   13 cycles
 SCF Done:  E(RB+HF-LYP) =  -1404.24242103     A.U. after   10 cycles
 SCF Done:  E(RB+HF-LYP) =  -1404.24242490     A.U. after   10 cycles
 SCF Done:  E(RB+HF-LYP) =  -1404.24242613     A.U. after   10 cycles
 SCF Done:  E(RB+HF-LYP) =  -1404.24242663     A.U. after   10 cycles
 SCF Done:  E(RB+HF-LYP) =  -1404.24242676     A.U. after   10 cycles
 SCF Done:  E(RB+HF-LYP) =  -1404.24242686     A.U. after    9 cycles
 SCF Done:  E(RB+HF-LYP) =  -1404.24242688     A.U. after    9 cycles
 SCF Done:  E(RB+HF-LYP) =  -1404.24242691     A.U. after    8 cycles
 SCF Done:  E(RB+HF-LYP) =  -1404.24242701     A.U. after    8 cycles
 Optimization completed.
    -- Stationary point found.
 Normal termination of Gaussian 03 at Sat Aug  2 22:39:39 2008.
 Gaussian 03:  IA64L-G03RevD.01 13-Oct-2005

 ----------------------------------------------------------------------
 #p nmr=giao b3lyp/Gen scf=tight integral=(grid=ultrafine) pseudo=read
 scrf=(pcm,solvent=water,read) guess=read geom=checkpoint
 ----------------------------------------------------------------------

 Molecule 10, NMR.
 -----------------
 Redundant internal coordinates taken from checkpoint file:
 molecule_10.chk
 Charge =  0 Multiplicity = 1

                         Standard orientation:
 ---------------------------------------------------------------------
 Center     Atomic     Atomic              Coordinates (Angstroms)
 Number     Number      Type              X           Y           Z
 ---------------------------------------------------------------------
    1          6             0        1.691353    0.874284   -1.147882
    2          1             0        0.715430    0.919926   -1.644754
    3          1             0        2.213339   -0.027855   -1.484200
    4          7             0        1.417540    0.726775    0.323885
    5          1             0        2.321335    0.676574    0.837812
    6         15             0        0.533220   -0.826886    0.952121
    7          8             0       -0.121089   -0.327958    2.224265
    8          8             0        1.612139   -1.906396    0.861396
    9          6             0        2.501408    2.111721   -1.412881
   10          1             0        2.034351    3.068538   -1.159460
   11          6             0        3.725476    2.088445   -1.947148
   12          1             0        4.275207    3.008807   -2.144307
   13          1             0        4.214484    1.148514   -2.208475
   14          8             0        3.715740   -0.227216    1.716884
   15          1             0        3.907282   -0.149354    2.658729
   16          1             0        3.232951   -1.070263    1.611447
   17          8             0       -0.106252    2.408979    2.021919
   18          1             0       -0.315634    1.503173    2.339547
   19          1             0       -0.952991    2.860699    1.935473
   20          8             0        2.886960   -2.254469   -1.631752
   21          1             0        2.467512   -2.331437   -0.753696
   22          1             0        3.277672   -3.116458   -1.809958
   23          1             0        0.893831    1.536918    0.706450
   24         16             0       -0.812160   -1.357993   -0.626272
   25         53             0       -2.728692    0.170297   -0.375613
 ---------------------------------------------------------------------

 SCF Done:  E(RB+HF-LYP) =  -1404.34441218     A.U. after   12 cycles

  1  C    Isotropic =   141.6281   Anisotropy =    28.6699

  2  H    Isotropic =    27.6660   Anisotropy =     5.8352

  3  H    Isotropic =    27.3674   Anisotropy =     6.5597

  4  N    Isotropic =   167.2272   Anisotropy =    74.1764

  5  H    Isotropic =    23.6789   Anisotropy =    19.0576

  6  P    Isotropic =   240.8472   Anisotropy =   238.6181

  7  O    Isotropic =   125.5750   Anisotropy =    68.2109

  8  O    Isotropic =   129.8708   Anisotropy =    94.3188

  9  C    Isotropic =    59.4936   Anisotropy =   155.8176

 10  H    Isotropic =    25.2224   Anisotropy =     5.6766

 11  C    Isotropic =    68.1807   Anisotropy =   145.4713

 12  H    Isotropic =    25.8808   Anisotropy =     5.6274

 13  H    Isotropic =    25.7522   Anisotropy =     6.6176

 14  O    Isotropic =   309.7634   Anisotropy =    53.5481

 15  H    Isotropic =    29.5745   Anisotropy =    20.2855

 16  H    Isotropic =    28.0792   Anisotropy =    22.3292

 17  O    Isotropic =   310.9456   Anisotropy =    49.3762

 18  H    Isotropic =    26.7288   Anisotropy =    24.3627

 19  H    Isotropic =    29.7792   Anisotropy =    18.4541

 20  O    Isotropic =   325.0391   Anisotropy =    62.9211

 21  H    Isotropic =    27.8176   Anisotropy =    27.9258

 22  H    Isotropic =    30.5372   Anisotropy =    22.0539

 23  H    Isotropic =    23.2912   Anisotropy =    19.8997

 24  S    Isotropic =   524.1092   Anisotropy =   256.0985

 25  I    Isotropic =   258.4043   Anisotropy =    39.6350

 The electronic state is 1-A.
 Alpha  occ. eigenvalues --  -88.93471 -77.18661 -19.15981 -19.15700 -19.14676
 Alpha  occ. eigenvalues --  -19.14285 -19.13918 -14.41971 -10.24473 -10.20810
 Alpha  occ. eigenvalues --  -10.19818  -7.99245  -6.66076  -5.95762  -5.95297
 Alpha  occ. eigenvalues --   -5.94615  -4.82430  -4.82261  -4.81964  -2.17461
 Alpha  occ. eigenvalues --   -2.16984  -2.16909  -2.15555  -2.15555  -1.03643
 Alpha  occ. eigenvalues --   -1.02266  -1.01738  -1.00200  -0.97316  -0.96527
 Alpha  occ. eigenvalues --   -0.80304  -0.78130  -0.70555  -0.68391  -0.59441
 Alpha  occ. eigenvalues --   -0.57689  -0.56955  -0.54299  -0.53738  -0.52611
 Alpha  occ. eigenvalues --   -0.50624  -0.48317  -0.46625  -0.43904  -0.43803
 Alpha  occ. eigenvalues --   -0.42848  -0.40869  -0.40323  -0.39954  -0.38398
 Alpha  occ. eigenvalues --   -0.37729  -0.36562  -0.34661  -0.34055  -0.33201
 Alpha  occ. eigenvalues --   -0.32899  -0.32635  -0.31986  -0.31386  -0.30796
 Alpha  occ. eigenvalues --   -0.28618  -0.27834  -0.25711
 Alpha virt. eigenvalues --   -0.12464  -0.03755  -0.01827   0.00216   0.00769
 Alpha virt. eigenvalues --    0.01025   0.01310   0.02840   0.03365   0.03661
 Alpha virt. eigenvalues --    0.03896   0.05080   0.05357   0.06692   0.06945

 Mulliken atomic charges:
              1
     1  C   -0.223814
     2  H    0.232544
     3  H    0.234657
     4  N   -0.565867
     5  H    0.339181
     6  P    1.611656
     7  O   -0.905093
     8  O   -0.854551
     9  C    0.151373
    10  H    0.168763
    11  C   -0.508109
    12  H    0.154503
    13  H    0.147502
    14  O   -0.598685
    15  H    0.306915
    16  H    0.320577
    17  O   -0.639140
    18  H    0.339704
    19  H    0.303637
    20  O   -0.643438
    21  H    0.327558
    22  H    0.294954
    23  H    0.330521
    24  S   -0.420713
    25  I    0.095363
 Sum of Mulliken charges=   0.00000

 Dipole moment (field-independent basis, Debye):
    X=    -0.5879    Y=     4.2564    Z=    -1.4826  Tot=     4.5454
 Quadrupole moment (field-independent basis, Debye-Ang):
   XX=   -98.4226   YY=  -100.9295   ZZ=  -112.8918
   XY=    -5.7193   XZ=     2.8318   YZ=     0.5668

 Normal termination of Gaussian 03 at Sat Aug  2 22:51:37 2008.
