 Gaussian 03, Revision D.01,
 Gaussian 03:  AM64L-G03RevD.01 13-Oct-2005

 ----------------------------------------------------------------------
 #p ub3lyp/EPR-II guess=mix geom=connectivity scf=(restart,tight,novara
 cc,noincfock,xqc) integral(grid=ultrafine) pop=minimal iop(6/82=1)
 ----------------------------------------------------------------------

 ----------------------------
 PF dyad hyperfine couplings.
 ----------------------------
 Symbolic Z-matrix:
 Charge = -1 Multiplicity = 2

                         Standard orientation:
 ---------------------------------------------------------------------
 Center     Atomic     Atomic              Coordinates (Angstroms)
 Number     Number      Type              X           Y           Z
 ---------------------------------------------------------------------
    1          6             0       -5.063493   -1.750574    3.304635
    2          6             0       -4.723602   -2.886586    2.474759
    3          6             0       -3.608506   -2.840068    1.628464
    4          6             0       -2.790926   -1.634992    1.578222
    5          6             0       -3.131502   -0.524735    2.365234
    6          6             0       -4.276820   -0.579352    3.244318
    7          6             0       -6.506533   -1.642819    3.339534
    8          6             0       -7.065249   -2.722595    2.538820
    9          6             0       -5.959568   -3.493787    2.002275
   10          6             0       -6.032053   -4.021052    0.708931
   11          6             0       -3.680817   -3.392232    0.291934
   12          6             0       -2.362126   -1.439693    0.221312
   13          6             0       -2.302123   -0.134801   -0.302133
   14          6             0       -2.606371    1.006521    0.516947
   15          6             0       -3.028925    0.815740    1.815193
   16          6             0       -4.151974    1.600732    2.364361
   17          6             0       -4.911857    0.718524    3.232639
   18          6             0       -6.310299    0.820946    3.287800
   19          6             0       -7.125137   -0.386479    3.334851
   20          6             0       -8.209761   -2.502677    1.765549
   21          6             0       -8.851780   -1.201957    1.760892
   22          6             0       -8.313057   -0.160027    2.538365
   23          6             0       -8.221083    1.178836    1.985516
   24          6             0       -6.985777    1.786136    2.466094
   25          6             0       -6.233499    2.608769    1.607168
   26          6             0       -4.798213    2.531517    1.582054
   27          6             0       -4.272498    3.034054    0.230405
   28          6             0       -3.039297    2.183781   -0.366877
   29          6             0       -2.923252   -2.517836   -0.584691
   30          6             0       -5.066548    0.577587   -3.210594
   31          6             0       -4.457160   -0.685730   -3.223701
   32          6             0       -5.279225   -1.888890   -3.185533
   33          6             0       -6.675534   -1.776006   -3.148037
   34          6             0       -7.306709   -0.474131   -3.156590
   35          6             0       -6.848010    1.820056   -2.347973
   36          6             0       -5.620217    2.436776   -1.873150
   37          6             0       -4.496501    1.654167   -2.417037
   38          6             0       -3.355588    1.435778   -1.667714
   39          6             0       -2.760576    0.130540   -1.646386
   40          6             0       -3.279305   -0.917429   -2.433908
   41          6             0       -4.603406   -2.865836   -2.359296
   42          6             0       -5.342491   -3.707157   -1.509867
   43          6             0       -6.789719   -3.588652   -1.470947
   44          6             0       -7.442579   -2.649110   -2.272409
   45          6             0       -8.550338   -1.876960   -1.735996
   46          6             0       -8.459105   -0.531709   -2.282914
   47          6             0       -8.796672    0.565110   -1.478955
   48          6             0       -7.977063    1.769827   -1.516796
   49          6             0       -5.559554    2.964723   -0.598594
   50          6             0       -6.700685    2.877041    0.265537
   51          6             0       -7.910360    2.312984   -0.188001
   52          6             0       -8.670577    1.437064    0.690603
   53          6             0       -9.232175    0.363152   -0.113447
   54          6             0       -9.315786   -0.935143    0.417463
   55          6             0       -8.965468   -2.071720   -0.416042
   56          6             0       -8.283238   -3.046574    0.419040
   57          6             0       -7.219667   -3.788671   -0.096911
   58          6             0       -3.371820   -2.259445   -1.879793
   59          6             0       -4.876885   -3.975642   -0.167566
   60          6             0       -6.507190    0.690121   -3.181816
   61          6             0       -1.922862    3.290436   -0.569505
   62          1             0       -2.071605    3.695408   -1.590565
   63          6             0       -3.696740    4.473610    0.314168
   64          1             0       -3.965119    5.028661   -0.606005
   65          1             0       -4.097601    5.028362    1.168178
   66          7             0       -2.255448    4.305662    0.430519
   67          6             0       -1.531622    5.558163    0.281946
   68          1             0       -1.842624    6.253152    1.068715
   69          1             0       -0.457040    5.386986    0.382984
   70          1             0       -1.713208    6.045648   -0.696016
   71          6             0       -0.492077    2.803785   -0.473206
   72          6             0        0.237541    2.520076   -1.632515
   73          6             0        0.131504    2.613910    0.768365
   74          6             0        1.551297    2.054540   -1.558664
   75          1             0       -0.229510    2.659627   -2.603941
   76          6             0        1.445994    2.157108    0.842500
   77          1             0       -0.427251    2.831563    1.672168
   78          6             0        2.176775    1.869751   -0.319538
   79          1             0        2.100678    1.836278   -2.470269
   80          1             0        1.914990    2.016862    1.812638
   81          1             0        3.588694    5.712880   -0.313382
   82          6             0        3.310716    4.656284   -0.279046
   83          6             0        4.538179    3.796339   -0.186439
   84          1             0        2.719570    4.438405   -1.172257
   85          1             0        2.642601    4.516458    0.575222
   86          6             0        4.654267    2.316544   -0.177842
   87          6             0        5.818282    4.263733   -0.096052
   88          6             0        3.591040    1.376157   -0.239946
   89          7             0        5.967538    1.942235   -0.094984
   90          6             0        6.689488    3.089575   -0.040513
   91          6             0        6.300959    5.683429   -0.059151
   92          6             0        3.794843   -0.020689   -0.238345
   93          6             0        8.078733    3.217518    0.059869
   94          1             0        6.984856    5.900296   -0.889059
   95          1             0        5.475682    6.395579   -0.124868
   96          1             0        6.844351    5.901525    0.868770
   97          6             0        2.837548   -1.119767   -0.278130
   98          7             0        5.049086   -0.587453   -0.200941
   99          1             0        8.430282    4.242445    0.104738
  100          6             0        9.111109    2.283498    0.112880
  101          6             0        3.568559   -2.290834   -0.274958
  102          6             0        1.339365   -1.041798   -0.298681
  103          6             0        4.969878   -1.951450   -0.224848
  104          7             0        9.037120    0.918778    0.064404
  105          6             0       10.507187    2.620794    0.226410
  106          6             0        3.059556   -3.701595   -0.310805
  107          1             0        0.897433   -2.038452   -0.260443
  108          1             0        0.944909   -0.480103    0.550446
  109          1             0        0.960355   -0.549418   -1.197390
  110          6             0        6.003507   -2.884324   -0.209025
  111          6             0       10.288861    0.350161    0.134445
  112          6             0       11.237794    1.448036    0.242224
  113          6             0       11.010870    4.031816    0.311251
  114          1             0        3.375183   -4.265749    0.574706
  115          1             0        1.970180   -3.736835   -0.349023
  116          1             0        3.435088   -4.240511   -1.188765
  117          1             0        5.650183   -3.908563   -0.252155
  118          6             0        7.395544   -2.755964   -0.144922
  119          6             0       10.491500   -1.047646    0.095243
  120          6             0       12.734027    1.372850    0.356429
  121          1             0       10.602959    4.551947    1.185982
  122          1             0       12.098979    4.072232    0.386443
  123          1             0       10.723414    4.614616   -0.571825
  124          6             0        8.268469   -3.930432   -0.151570
  125          7             0        8.119082   -1.611326   -0.063051
  126          6             0        9.433409   -1.987780   -0.008550
  127          1             0       13.159219    2.374551    0.449769
  128          1             0       13.053376    0.796382    1.228530
  129          1             0       13.192683    0.899103   -0.515647
  130          6             0        9.550256   -3.465230   -0.068662
  131          6             0        7.784912   -5.347657   -0.237638
  132          6             0       10.780174   -4.328012   -0.055357
  133          1             0        8.610317   -6.062814   -0.224836
  134          1             0        7.124017   -5.599737    0.600636
  135          1             0        7.214721   -5.524511   -1.157754
  136          1             0       11.363718   -4.210501    0.862112
  137          1             0       10.504170   -5.382423   -0.136673
  138          1             0       11.456491   -4.100685   -0.884168
  139          6             0       11.905760   -1.541108    0.173861
  140          6             0       12.491898   -1.841484    1.411842
  141          6             0       12.675152   -1.705321   -0.986806
  142          6             0       13.810268   -2.293480    1.488964
  143          1             0       11.904073   -1.718227    2.317024
  144          6             0       13.993657   -2.157507   -0.913387
  145          1             0       12.230055   -1.476513   -1.951015
  146          6             0       14.565471   -2.452695    0.325550
  147          1             0       14.247024   -2.521413    2.457384
  148          1             0       14.573849   -2.279867   -1.823883
  149          1             0        8.211599    0.320112   -0.008706
  150          1             0        5.876346    0.010197   -0.155767
  151          1             0       15.591473   -2.804740    0.383827
 ---------------------------------------------------------------------

 SCF Done:  E(UB+HF-LYP) =  -4224.96284036     A.U. after   24 cycles

 Alpha virt. eigenvalues --    0.92978   0.93198   0.93402   0.93581   0.93882
 Alpha virt. eigenvalues --    0.94050   0.94253   0.94322   0.94397   0.94751
 Alpha virt. eigenvalues --    0.94956   0.95042   0.95148   0.95197   0.95367

  Beta  occ. eigenvalues --  -14.31282 -14.30859 -14.27034 -14.25291 -14.25149
  Beta  occ. eigenvalues --  -10.19076 -10.18739 -10.18493 -10.18397 -10.17439
  Beta  occ. eigenvalues --  -10.17277 -10.17111 -10.16985 -10.16891 -10.16874
  Beta  occ. eigenvalues --  -10.16763 -10.16690 -10.16595 -10.16595 -10.16327
  Beta  occ. eigenvalues --  -10.16320 -10.16141 -10.16060 -10.15868 -10.15789
  Beta  occ. eigenvalues --  -10.15654 -10.15097 -10.15065 -10.15054 -10.14979
  Beta  occ. eigenvalues --  -10.14924 -10.14855 -10.14737 -10.14726 -10.14660
  Beta  occ. eigenvalues --  -10.14552 -10.14318 -10.14236 -10.14145 -10.14108
  Beta  occ. eigenvalues --  -10.14054 -10.14002 -10.14002 -10.13998 -10.13997
  Beta  occ. eigenvalues --  -10.13994 -10.13984 -10.13981 -10.13958 -10.13950
  Beta  occ. eigenvalues --  -10.13937 -10.13936 -10.13928 -10.13913 -10.13872
  Beta  occ. eigenvalues --  -10.13844 -10.13822 -10.13808 -10.13743 -10.13732
  Beta  occ. eigenvalues --  -10.13729 -10.13712 -10.13706 -10.13697 -10.13682
  Beta  occ. eigenvalues --  -10.13676 -10.13673 -10.13670 -10.13666 -10.13649
  Beta  occ. eigenvalues --  -10.13629 -10.13622 -10.13622 -10.13620 -10.13602
  Beta  occ. eigenvalues --  -10.13597 -10.13595 -10.13553 -10.13535 -10.13527
  Beta  occ. eigenvalues --  -10.13509 -10.13503 -10.13500 -10.13496 -10.13474
  Beta  occ. eigenvalues --  -10.13470 -10.13457 -10.13441 -10.13432 -10.13347
  Beta  occ. eigenvalues --  -10.13330 -10.13319 -10.13315 -10.13312 -10.13252
  Beta  occ. eigenvalues --  -10.13243 -10.13209 -10.13208 -10.13163 -10.13113
  Beta  occ. eigenvalues --  -10.13063 -10.13021 -10.12974 -10.12913 -10.12878
  Beta  occ. eigenvalues --  -10.12858 -10.12467 -10.11491  -0.93279  -0.92782
  Beta  occ. eigenvalues --   -0.88813  -0.88682  -0.88480  -0.86550  -0.84740
  Beta  occ. eigenvalues --   -0.84643  -0.84498  -0.82893  -0.81281  -0.81020
  Beta  occ. eigenvalues --   -0.80909  -0.80824  -0.80765  -0.80675  -0.77496
  Beta  occ. eigenvalues --   -0.77312  -0.77036  -0.76895  -0.76760  -0.76016
  Beta  occ. eigenvalues --   -0.75597  -0.74419  -0.74128  -0.74054  -0.73968
  Beta  occ. eigenvalues --   -0.73898  -0.73723  -0.73683  -0.72521  -0.71605
  Beta  occ. eigenvalues --   -0.70608  -0.69918  -0.69784  -0.69145  -0.69099
  Beta  occ. eigenvalues --   -0.68915  -0.68778  -0.68769  -0.68050  -0.67798
  Beta  occ. eigenvalues --   -0.67606  -0.67168  -0.67088  -0.67048  -0.66981
  Beta  occ. eigenvalues --   -0.66804  -0.65172  -0.64702  -0.64155  -0.63736
  Beta  occ. eigenvalues --   -0.63131  -0.62225  -0.61793  -0.61783  -0.61431
  Beta  occ. eigenvalues --   -0.61270  -0.61108  -0.60991  -0.60127  -0.60042
  Beta  occ. eigenvalues --   -0.59995  -0.59397  -0.59022  -0.57507  -0.56828
  Beta  occ. eigenvalues --   -0.56004  -0.55951  -0.55694  -0.55439  -0.54781
  Beta  occ. eigenvalues --   -0.53481  -0.53203  -0.52549  -0.52239  -0.52157
  Beta  occ. eigenvalues --   -0.52079  -0.51981  -0.51877  -0.51738  -0.51559
  Beta  occ. eigenvalues --   -0.51228  -0.50670  -0.50380  -0.50194  -0.49285
  Beta  occ. eigenvalues --   -0.49268  -0.48541  -0.46952  -0.46511  -0.46183
  Beta  occ. eigenvalues --   -0.46028  -0.45551  -0.45238  -0.45220  -0.44870
  Beta  occ. eigenvalues --   -0.44212  -0.44017  -0.43734  -0.43413  -0.43170
  Beta  occ. eigenvalues --   -0.42941  -0.42597  -0.42443  -0.42238  -0.42185
  Beta  occ. eigenvalues --   -0.41981  -0.41514  -0.41373  -0.41092  -0.40903
  Beta  occ. eigenvalues --   -0.40563  -0.40404  -0.39906  -0.39484  -0.39194
  Beta  occ. eigenvalues --   -0.39090  -0.39048  -0.39012  -0.38748  -0.38566
  Beta  occ. eigenvalues --   -0.38414  -0.38371  -0.38224  -0.38077  -0.37985
  Beta  occ. eigenvalues --   -0.37878  -0.37665  -0.37649  -0.36937  -0.36910
  Beta  occ. eigenvalues --   -0.36608  -0.36465  -0.36361  -0.36262  -0.36141
  Beta  occ. eigenvalues --   -0.36095  -0.36020  -0.35737  -0.35522  -0.35493
  Beta  occ. eigenvalues --   -0.35474  -0.35405  -0.35381  -0.35192  -0.35123
  Beta  occ. eigenvalues --   -0.34938  -0.34561  -0.34535  -0.34363  -0.34207
  Beta  occ. eigenvalues --   -0.34092  -0.33940  -0.33904  -0.33700  -0.33673
  Beta  occ. eigenvalues --   -0.33604  -0.33383  -0.33135  -0.32996  -0.32852
  Beta  occ. eigenvalues --   -0.32763  -0.32697  -0.32556  -0.32509  -0.32361
  Beta  occ. eigenvalues --   -0.32230  -0.31989  -0.31800  -0.31739  -0.31664
  Beta  occ. eigenvalues --   -0.31446  -0.31399  -0.31282  -0.31243  -0.31090
  Beta  occ. eigenvalues --   -0.30979  -0.30929  -0.30871  -0.30774  -0.30396
  Beta  occ. eigenvalues --   -0.30174  -0.29908  -0.29848  -0.29803  -0.29735
  Beta  occ. eigenvalues --   -0.29518  -0.29197  -0.29075  -0.28757  -0.28126
  Beta  occ. eigenvalues --   -0.27939  -0.27309  -0.26332  -0.25823  -0.25784
  Beta  occ. eigenvalues --   -0.25708  -0.25597  -0.25458  -0.25455  -0.25074
  Beta  occ. eigenvalues --   -0.24747  -0.24678  -0.24519  -0.24498  -0.24347
  Beta  occ. eigenvalues --   -0.24295  -0.23686  -0.23574  -0.23545  -0.22575
  Beta  occ. eigenvalues --   -0.22356  -0.21866  -0.21810  -0.21373  -0.21253
  Beta  occ. eigenvalues --   -0.20825  -0.20064  -0.19987  -0.18960  -0.18862
  Beta  occ. eigenvalues --   -0.17638  -0.17348  -0.17258  -0.17203  -0.17126
  Beta  occ. eigenvalues --   -0.17001  -0.16816  -0.16763  -0.16707  -0.16551
  Beta  occ. eigenvalues --   -0.15768  -0.14021  -0.13976  -0.13816  -0.12303
  Beta  occ. eigenvalues --   -0.11892  -0.11608  -0.11555
  Beta virt. eigenvalues --   -0.03350  -0.03234  -0.02481  -0.02103  -0.01183
  Beta virt. eigenvalues --    0.01611   0.01851   0.02128   0.02225   0.02274
  Beta virt. eigenvalues --    0.02782   0.03212   0.03795   0.04136   0.04431

 Mulliken atomic charges:
              1
     1  C   -0.078381
     2  C    0.028503
     3  C    0.003886
     4  C   -0.106162
     5  C    0.055079
     6  C   -0.054719
     7  C    0.015706
     8  C   -0.027779
     9  C   -0.035261
    10  C    0.011732
    11  C   -0.076904
    12  C    0.003152
    13  C   -0.057320
    14  C    0.109028
    15  C   -0.118803
    16  C   -0.176961
    17  C    0.068510
    18  C   -0.070770
    19  C    0.013919
    20  C    0.001964
    21  C   -0.033608
    22  C   -0.066830
    23  C    0.052970
    24  C   -0.089145
    25  C   -0.064698
    26  C    0.228365
    27  C    0.121871
    28  C    0.212422
    29  C    0.016081
    30  C    0.043185
    31  C   -0.022396
    32  C   -0.012768
    33  C    0.014633
    34  C   -0.069161
    35  C    0.055909
    36  C   -0.108445
    37  C   -0.078891
    38  C    0.110697
    39  C   -0.008925
    40  C   -0.182694
    41  C   -0.055706
    42  C   -0.028703
    43  C    0.004055
    44  C   -0.023754
    45  C   -0.029112
    46  C    0.013960
    47  C   -0.000256
    48  C   -0.049594
    49  C    0.186576
    50  C   -0.113980
    51  C   -0.097676
    52  C    0.050405
    53  C   -0.062915
    54  C   -0.016630
    55  C    0.000660
    56  C   -0.019447
    57  C   -0.029535
    58  C    0.065372
    59  C   -0.026443
    60  C   -0.070968
    61  C   -0.492736
    62  H    0.111624
    63  C   -0.370377
    64  H    0.130219
    65  H    0.124578
    66  N   -0.015272
    67  C   -0.432882
    68  H    0.133479
    69  H    0.160987
    70  H    0.134992
    71  C    0.593115
    72  C   -0.271549
    73  C   -0.195229
    74  C   -0.384774
    75  H    0.108580
    76  C   -0.403260
    77  H    0.137109
    78  C    0.402436
    79  H    0.119704
    80  H    0.124027
    81  H    0.090671
    82  C   -0.554642
    83  C    0.170141
    84  H    0.173377
    85  H    0.170517
    86  C   -0.072970
    87  C    0.170340
    88  C    0.104557
    89  N   -0.241665
    90  C    0.191668
    91  C   -0.613071
    92  C   -0.251619
    93  C   -0.484395
    94  H    0.155322
    95  H    0.136857
    96  H    0.155523
    97  C    0.240763
    98  N    0.015291
    99  H    0.125461
   100  C    0.129714
   101  C    0.184367
   102  C   -0.523465
   103  C    0.128872
   104  N    0.002517
   105  C    0.206671
   106  C   -0.607559
   107  H    0.108988
   108  H    0.173118
   109  H    0.171847
   110  C   -0.475919
   111  C   -0.201877
   112  C    0.192579
   113  C   -0.611800
   114  H    0.159160
   115  H    0.151752
   116  H    0.156970
   117  H    0.129600
   118  C    0.193474
   119  C    0.142586
   120  C   -0.576088
   121  H    0.162588
   122  H    0.133673
   123  H    0.161000
   124  C    0.164689
   125  N   -0.247466
   126  C   -0.066720
   127  H    0.102972
   128  H    0.170520
   129  H    0.169823
   130  C    0.163882
   131  C   -0.609165
   132  C   -0.576491
   133  H    0.131780
   134  H    0.159196
   135  H    0.159816
   136  H    0.166895
   137  H    0.102558
   138  H    0.166075
   139  C    0.373818
   140  C   -0.315491
   141  C   -0.316309
   142  C   -0.116095
   143  H    0.127780
   144  C   -0.116336
   145  H    0.127542
   146  C   -0.087803
   147  H    0.094565
   148  H    0.094295
   149  H    0.242463
   150  H    0.239147
   151  H    0.081094
 Sum of Mulliken charges=  -1.00000

 Dipole moment (field-independent basis, Debye):
    X=    24.2521    Y=     4.3834    Z=    -0.5021  Tot=    24.6501
 Quadrupole moment (field-independent basis, Debye-Ang):
   XX=  -823.4399   YY=  -624.3404   ZZ=  -653.4066
   XY=   -19.4862   XZ=     3.0757   YZ=     0.2770

 Normal termination of Gaussian 03 at Tue Jun 20 13:41:33 2006.
