 Gaussian 03, Revision D.02,
 Gaussian 03:  AM64L-G03RevD.02  1-Mar-2006

 ----------------------------------------------------------------------
 #p ub3lyp/EPR-II guess=mix geom=connectivity scf=(tight,novaracc,noinc
 fock) integral=(grid=ultrafine) scrf=(pcm,solvent=thf)
 ----------------------------------------------------------------------

 ------------------------------------------
 Ethylcarbazole cation hyperfine couplings.
 ------------------------------------------
 Symbolic Z-matrix:
 Charge =  1 Multiplicity = 2

                         Standard orientation:
 ---------------------------------------------------------------------
 Center     Atomic     Atomic              Coordinates (Angstroms)
 Number     Number      Type              X           Y           Z
 ---------------------------------------------------------------------
    1          6             0        2.049111    0.173409   -1.695466
    2          6             0        1.073072    0.028700   -0.731181
    3          6             0       -0.276987   -0.172798   -1.130160
    4          6             0       -0.661806   -0.228002   -2.475806
    5          6             0        0.338519   -0.077462   -3.433154
    6          6             0        1.669882    0.118553   -3.053039
    7          1             0        3.087435    0.326993   -1.428420
    8          1             0       -1.692034   -0.379718   -2.770575
    9          1             0        0.080957   -0.114111   -4.483849
   10          1             0        2.429484    0.230850   -3.817069
   11          6             0        1.073072    0.028700    0.731181
   12          6             0       -0.276987   -0.172798    1.130160
   13          6             0        2.049111    0.173409    1.695466
   14          6             0       -0.661806   -0.228002    2.475806
   15          6             0        1.669882    0.118553    3.053039
   16          1             0        3.087435    0.326993    1.428420
   17          6             0        0.338519   -0.077462    3.433154
   18          1             0       -1.692034   -0.379718    2.770575
   19          1             0        2.429484    0.230850    3.817069
   20          1             0        0.080957   -0.114111    4.483849
   21          7             0       -1.064838   -0.296101    0.000000
   22          6             0       -2.520861   -0.471169    0.000000
   23          1             0       -2.776102   -1.065794   -0.877596
   24          1             0       -2.776102   -1.065794    0.877596
   25          6             0       -3.266153    0.867984    0.000000
   26          1             0       -4.340412    0.674128    0.000000
   27          1             0       -3.022300    1.456221    0.886577
   28          1             0       -3.022300    1.456221   -0.886577
 ---------------------------------------------------------------------

 SCF Done:  E(UB+HF-LYP) =  -595.977923792     A.U. after   23 cycles

 Unable to determine electronic state:  an orbital has unidentified symmetry.
 Alpha  occ. eigenvalues --  -14.47642 -10.29029 -10.29029 -10.27633 -10.25919
 Alpha  occ. eigenvalues --  -10.25884 -10.25739 -10.25739 -10.24986 -10.24986
 Alpha  occ. eigenvalues --  -10.24845 -10.24845 -10.24030 -10.24030 -10.21801
 Alpha  occ. eigenvalues --   -1.06797  -0.91180  -0.90499  -0.84864  -0.81306
 Alpha  occ. eigenvalues --   -0.81014  -0.77495  -0.76886  -0.70714  -0.67263
 Alpha  occ. eigenvalues --   -0.67026  -0.62985  -0.62608  -0.57456  -0.57207
 Alpha  occ. eigenvalues --   -0.54837  -0.52141  -0.50778  -0.50310  -0.49928
 Alpha  occ. eigenvalues --   -0.48468  -0.47888  -0.46771  -0.46597  -0.43952
 Alpha  occ. eigenvalues --   -0.42404  -0.41431  -0.41226  -0.40995  -0.39694
 Alpha  occ. eigenvalues --   -0.39171  -0.38490  -0.38045  -0.33859  -0.31224
 Alpha  occ. eigenvalues --   -0.27218  -0.27150
 Alpha virt. eigenvalues --   -0.08510  -0.05991  -0.04021  -0.01888  -0.00639
 Alpha virt. eigenvalues --    0.01268   0.01524   0.02462   0.03444   0.03605
 Alpha virt. eigenvalues --    0.03892   0.05681   0.05992   0.07413   0.08262

  Beta  occ. eigenvalues --  -14.46797 -10.29128 -10.29127 -10.27662 -10.25813
  Beta  occ. eigenvalues --  -10.25778 -10.25477 -10.25477 -10.24859 -10.24859
  Beta  occ. eigenvalues --  -10.24699 -10.24699 -10.24142 -10.24142 -10.21748
  Beta  occ. eigenvalues --   -1.05600  -0.90675  -0.90169  -0.84542  -0.81046
  Beta  occ. eigenvalues --   -0.80556  -0.77438  -0.76152  -0.70459  -0.67105
  Beta  occ. eigenvalues --   -0.66600  -0.62730  -0.62354  -0.57255  -0.56888
  Beta  occ. eigenvalues --   -0.54427  -0.50985  -0.50624  -0.49821  -0.49466
  Beta  occ. eigenvalues --   -0.48239  -0.47728  -0.46643  -0.46512  -0.43398
  Beta  occ. eigenvalues --   -0.42226  -0.41253  -0.40821  -0.40426  -0.39553
  Beta  occ. eigenvalues --   -0.39075  -0.38351  -0.35996  -0.32982  -0.29435
  Beta  occ. eigenvalues --   -0.27150
  Beta virt. eigenvalues --   -0.20600  -0.07831  -0.04933  -0.02562  -0.01018
  Beta virt. eigenvalues --   -0.00534   0.01329   0.01563   0.02506   0.03476
  Beta virt. eigenvalues --    0.03658   0.03918   0.05754   0.05989   0.07527

 Mulliken atomic charges:
              1
     1  C   -0.292079
     2  C    0.318552
     3  C   -0.026791
     4  C   -0.199255
     5  C   -0.133597
     6  C   -0.085171
     7  H    0.171733
     8  H    0.170863
     9  H    0.161142
    10  H    0.163974
    11  C    0.318552
    12  C   -0.026791
    13  C   -0.292079
    14  C   -0.199255
    15  C   -0.085171
    16  H    0.171733
    17  C   -0.133597
    18  H    0.170863
    19  H    0.163974
    20  H    0.161142
    21  N    0.358893
    22  C   -0.286260
    23  H    0.181243
    24  H    0.181243
    25  C   -0.478059
    26  H    0.181483
    27  H    0.181357
    28  H    0.181357
 Sum of Mulliken charges=   1.00000

 Dipole moment (field-independent basis, Debye):
    X=    -1.2593    Y=    -0.4296    Z=     0.0000  Tot=     1.3306
 Quadrupole moment (field-independent basis, Debye-Ang):
   XX=   -53.5504   YY=   -88.2625   ZZ=   -47.5888
   XY=     4.0609   XZ=     0.0000   YZ=     0.0000

 Normal termination of Gaussian 03 at Fri Dec  1 15:24:53 2006.
